  -15.00000       -7.4695907E-18
  -14.81950       -7.4695907E-18
  -14.63900       -7.4695907E-18
  -14.45850       -7.4695915E-18
  -14.27800       -7.4695915E-18
  -14.09750       -7.4695923E-18
  -13.91700       -7.4695923E-18
  -13.73650       -7.4695931E-18
  -13.55600       -7.4695931E-18
  -13.37550       -7.4695931E-18
  -13.19500       -7.4695931E-18
  -13.01450       -7.4695923E-18
  -12.83400       -7.4695915E-18
  -12.65350       -7.4695915E-18
  -12.47300       -7.4695907E-18
  -12.29250       -7.4695898E-18
  -12.11200       -7.4695898E-18
  -11.93150       -7.4695898E-18
  -11.75100       -7.4695907E-18
  -11.57050       -7.4695907E-18
  -11.39000       -7.4695923E-18
  -11.20950       -7.4695940E-18
  -11.02900       -7.4695948E-18
  -10.84850       -7.4695956E-18
  -10.66800       -7.4695956E-18
  -10.48750       -7.4695956E-18
  -10.30700       -7.4695948E-18
  -10.12650       -7.4695940E-18
  -9.946000       -7.4695923E-18
  -9.765500       -7.4695907E-18
  -9.585000       -7.4695890E-18
  -9.404500       -7.4695882E-18
  -9.224000       -7.4695882E-18
  -9.043500       -7.4695890E-18
  -8.863000       -7.4695907E-18
  -8.682500       -7.4695915E-18
  -8.502000       -7.4695940E-18
  -8.321500       -7.4695948E-18
  -8.141000       -7.4695964E-18
  -7.960500       -7.4695964E-18
  -7.780000       -7.4695964E-18
  -7.599500       -7.4695956E-18
  -7.419000       -7.4695948E-18
  -7.238500       -7.4695931E-18
  -7.058000       -7.4695915E-18
  -6.877500       -7.4695907E-18
  -6.697000       -7.4695890E-18
  -6.516500       -7.4695882E-18
  -6.336000       -7.4695882E-18
  -6.155500       -7.4695882E-18
  -5.975000       -7.4695882E-18
  -5.794500       -7.4695890E-18
  -5.614000       -7.4695890E-18
  -5.433500       -7.4695898E-18
  -5.253000       -7.4695907E-18
  -5.072500       -7.4695907E-18
  -4.892000       -7.4695915E-18
  -4.711500       -7.4695915E-18
  -4.531000       -7.4695907E-18
  -4.350500       -7.4695890E-18
  -4.170000       -7.4695882E-18
  -3.989500       -7.4695873E-18
  -3.809000       -7.4695873E-18
  -3.628500       -7.4695873E-18
  -3.448000       -7.4695898E-18
  -3.267500       -7.4695923E-18
  -3.087000       -7.4695948E-18
  -2.906500       -7.4695981E-18
  -2.726000       -7.4696006E-18
  -2.545500       -7.4696031E-18
  -2.365000       -7.4696039E-18
  -2.184500       -7.4696031E-18
  -2.004000       -7.4696014E-18
  -1.823500       -7.4695981E-18
  -1.643000       -7.4695931E-18
  -1.462500       -7.4695890E-18
  -1.282000       -7.4695857E-18
  -1.101500       -7.4695832E-18
 -0.9210000       -7.4695816E-18
 -0.7405000       -7.4695807E-18
 -0.5600000       -7.4695807E-18
 -0.3795000       -7.4695832E-18
 -0.1990000       -7.4695865E-18
 -1.8500000E-02   -7.4695898E-18
  0.1620000       -7.4695923E-18
  0.3425000       -7.4695948E-18
  0.5230000       -7.4695956E-18
  0.7035000       -7.4695956E-18
  0.8840000       -7.4695948E-18
   1.064500       -7.4695940E-18
   1.245000       -7.4695923E-18
   1.425500       -7.4695915E-18
   1.606000       -7.4695898E-18
   1.786500       -7.4695898E-18
   1.967000       -7.4695898E-18
   2.147500       -7.4695915E-18
   2.328000       -7.4695931E-18
   2.508500       -7.4695956E-18
   2.689000       -7.4695981E-18
   2.869500       -7.4695998E-18
   3.050000       -7.4695998E-18
   3.230500       -7.4695989E-18
   3.411000       -7.4695973E-18
   3.591500       -7.4695940E-18
   3.772000       -7.4695907E-18
   3.952500       -7.4695882E-18
   4.133000       -7.4695849E-18
   4.313500       -7.4695840E-18
   4.494000       -7.4695840E-18
   4.674500       -7.4695865E-18
   4.855000       -7.4695890E-18
   5.035500       -7.4695923E-18
   5.216000       -7.4695964E-18
   5.396500       -7.4695989E-18
   5.577000       -7.4695998E-18
   5.757500       -7.4695989E-18
   5.938000       -7.4695956E-18
   6.118500       -7.4695907E-18
   6.299000       -7.4695849E-18
   6.479500       -7.4695807E-18
   6.660000       -7.4695774E-18
   6.840500       -7.4695766E-18
   7.021000       -7.4695774E-18
   7.201500       -7.4695807E-18
   7.382000       -7.4695857E-18
   7.562500       -7.4695915E-18
   7.743000       -7.4695956E-18
   7.923500       -7.4695998E-18
   8.104000       -7.4696014E-18
   8.284500       -7.4696014E-18
   8.465000       -7.4695989E-18
   8.645500       -7.4695964E-18
   8.826000       -7.4695940E-18
   9.006500       -7.4695907E-18
   9.187000       -7.4695890E-18
   9.367500       -7.4695890E-18
   9.548000       -7.4695898E-18
   9.728500       -7.4695923E-18
   9.909000       -7.4695940E-18
   10.08950       -7.4695948E-18
   10.27000       -7.4695948E-18
   10.45050       -7.4695940E-18
   10.63100       -7.4695923E-18
   10.81150       -7.4695898E-18
   10.99200       -7.4695882E-18
   11.17250       -7.4695873E-18
   11.35300       -7.4695882E-18
   11.53350       -7.4695898E-18
   11.71400       -7.4695923E-18
   11.89450       -7.4695948E-18
   12.07500       -7.4695956E-18
   12.25550       -7.4695973E-18
   12.43600       -7.4695973E-18
   12.61650       -7.4695973E-18
   12.79700       -7.4695973E-18
   12.97750       -7.4695964E-18
   13.15800       -7.4695948E-18
   13.33850       -7.4695940E-18
   13.51900       -7.4695931E-18
   13.69950       -7.4695923E-18
   13.88000       -7.4695915E-18
   14.06050       -7.4695898E-18
   14.24100       -7.4695882E-18
   14.42150       -7.4695865E-18
   14.60200       -7.4695840E-18
   14.78250       -7.4695832E-18
   14.96300       -7.4695832E-18
   15.14350       -7.4695840E-18
   15.32400       -7.4695857E-18
   15.50450       -7.4695890E-18
   15.68500       -7.4695931E-18
   15.86550       -7.4695973E-18
   16.04600       -7.4696014E-18
   16.22650       -7.4696031E-18
   16.40700       -7.4696039E-18
   16.58750       -7.4696031E-18
   16.76800       -7.4696006E-18
   16.94850       -7.4695973E-18
   17.12900       -7.4695931E-18
   17.30950       -7.4695890E-18
   17.49000       -7.4695849E-18
   17.67050       -7.4695824E-18
   17.85100       -7.4695816E-18
   18.03150       -7.4695807E-18
   18.21200       -7.4695816E-18
   18.39250       -7.4695816E-18
   18.57300       -7.4695824E-18
   18.75350       -7.4695832E-18
   18.93400       -7.4695832E-18
   19.11450       -7.4695849E-18
   19.29500       -7.4695865E-18
   19.47550       -7.4695890E-18
   19.65600       -7.4695923E-18
   19.83650       -7.4695956E-18
   20.01700       -7.4695989E-18
   20.19750       -7.4696014E-18
   20.37800       -7.4696031E-18
   20.55850       -7.4696031E-18
   20.73900       -7.4696014E-18
   20.91950       -7.4695989E-18
   21.10000       -7.4695956E-18
   21.28050       -7.4695923E-18
   21.46100       -7.4695890E-18
   21.64150       -7.4695882E-18
   21.82200       -7.4695898E-18
   22.00250       -7.4695923E-18
   22.18300       -7.4695956E-18
   22.36350       -7.4695989E-18
   22.54400       -7.4696006E-18
   22.72450       -7.4696006E-18
   22.90500       -7.4695989E-18
   23.08550       -7.4695956E-18
   23.26600       -7.4695907E-18
   23.44650       -7.4695857E-18
   23.62700       -7.4695824E-18
   23.80750       -7.4695791E-18
   23.98800       -7.4695791E-18
   24.16850       -7.4695816E-18
   24.34900       -7.4695865E-18
   24.52950       -7.4695923E-18
   24.71000       -7.4695989E-18
   24.89050       -7.4696039E-18
   25.07100       -7.4696064E-18
   25.25150       -7.4696055E-18
   25.43200       -7.4696014E-18
   25.61250       -7.4695948E-18
   25.79300       -7.4695865E-18
   25.97350       -7.4695774E-18
   26.15400       -7.4695716E-18
   26.33450       -7.4695691E-18
   26.51500       -7.4695708E-18
   26.69550       -7.4695766E-18
   26.87600       -7.4695865E-18
   27.05650       -7.4695973E-18
   27.23700       -7.4696072E-18
   27.41750       -7.4696163E-18
   27.59800       -7.4696204E-18
   27.77850       -7.4696196E-18
   27.95900       -7.4696146E-18
   28.13950       -7.4696047E-18
   28.32000       -7.4695931E-18
   28.50050       -7.4695816E-18
   28.68100       -7.4695725E-18
   28.86150       -7.4695675E-18
   29.04200       -7.4695683E-18
   29.22250       -7.4695725E-18
   29.40300       -7.4695816E-18
   29.58350       -7.4695915E-18
   29.76400       -7.4696006E-18
   29.94450       -7.4696072E-18
   30.12500       -7.4696088E-18
   30.30550       -7.4696055E-18
   30.48600       -7.4695973E-18
   30.66650       -7.4695865E-18
   30.84700       -7.4695758E-18
   31.02750       -7.4695667E-18
   31.20800       -7.4695634E-18
   31.38850       -7.4695642E-18
   31.56900       -7.4695716E-18
   31.74950       -7.4695816E-18
   31.93000       -7.4695940E-18
   32.11050       -7.4696047E-18
   32.29100       -7.4696138E-18
   32.47150       -7.4696171E-18
   32.65200       -7.4696163E-18
   32.83250       -7.4696113E-18
   33.01300       -7.4696022E-18
   33.19350       -7.4695931E-18
   33.37400       -7.4695840E-18
   33.55450       -7.4695782E-18
   33.73500       -7.4695758E-18
   33.91550       -7.4695782E-18
   34.09600       -7.4695840E-18
   34.27650       -7.4695923E-18
   34.45700       -7.4695998E-18
   34.63750       -7.4696064E-18
   34.81800       -7.4696097E-18
   34.99850       -7.4696080E-18
   35.17900       -7.4696031E-18
   35.35950       -7.4695940E-18
   35.54000       -7.4695840E-18
   35.72050       -7.4695758E-18
   35.90100       -7.4695708E-18
   36.08150       -7.4695700E-18
   36.26200       -7.4695749E-18
   36.44250       -7.4695824E-18
   36.62300       -7.4695931E-18
   36.80350       -7.4696031E-18
   36.98400       -7.4696113E-18
   37.16450       -7.4696146E-18
   37.34500       -7.4696146E-18
   37.52550       -7.4696097E-18
   37.70600       -7.4696031E-18
   37.88650       -7.4695940E-18
   38.06700       -7.4695865E-18
   38.24750       -7.4695816E-18
   38.42800       -7.4695799E-18
   38.60850       -7.4695816E-18
   38.78900       -7.4695865E-18
   38.96950       -7.4695931E-18
   39.15000       -7.4695998E-18
   39.33050       -7.4696039E-18
   39.51100       -7.4696055E-18
   39.69150       -7.4696047E-18
   39.87200       -7.4696006E-18
   40.05250       -7.4695948E-18
   40.23300       -7.4695890E-18
   40.41350       -7.4695840E-18
   40.59400       -7.4695824E-18
   40.77450       -7.4695824E-18
   40.95500       -7.4695857E-18
   41.13550       -7.4695915E-18
   41.31600       -7.4695973E-18
   41.49650       -7.4696039E-18
   41.67700       -7.4696080E-18
   41.85750       -7.4696088E-18
   42.03800       -7.4696072E-18
   42.21850       -7.4696031E-18
   42.39900       -7.4695973E-18
   42.57950       -7.4695907E-18
   42.76000       -7.4695849E-18
   42.94050       -7.4695807E-18
   43.12100       -7.4695782E-18
   43.30150       -7.4695774E-18
   43.48200       -7.4695782E-18
   43.66250       -7.4695807E-18
   43.84300       -7.4695840E-18
   44.02350       -7.4695873E-18
   44.20400       -7.4695907E-18
   44.38450       -7.4695940E-18
   44.56500       -7.4695948E-18
   44.74550       -7.4695948E-18
   44.92600       -7.4695940E-18
   45.10650       -7.4695915E-18
   45.28700       -7.4695890E-18
   45.46750       -7.4695865E-18
   45.64800       -7.4695840E-18
   45.82850       -7.4695816E-18
   46.00900       -7.4695816E-18
   46.18950       -7.4695824E-18
   46.37000       -7.4695857E-18
   46.55050       -7.4695907E-18
   46.73100       -7.4695981E-18
   46.91150       -7.4696055E-18
   47.09200       -7.4696122E-18
   47.27250       -7.4696171E-18
   47.45300       -7.4696196E-18
   47.63350       -7.4696179E-18
   47.81400       -7.4696130E-18
   47.99450       -7.4696047E-18
   48.17500       -7.4695964E-18
   48.35550       -7.4695873E-18
   48.53600       -7.4695791E-18
   48.71650       -7.4695733E-18
   48.89700       -7.4695716E-18
   49.07750       -7.4695725E-18
   49.25800       -7.4695758E-18
   49.43850       -7.4695816E-18
   49.61900       -7.4695882E-18
   49.79950       -7.4695940E-18
   49.98000       -7.4695973E-18
   50.16050       -7.4695981E-18
   50.34100       -7.4695964E-18
   50.52150       -7.4695923E-18
   50.70200       -7.4695865E-18
   50.88250       -7.4695816E-18
   51.06300       -7.4695774E-18
   51.24350       -7.4695758E-18
   51.42400       -7.4695766E-18
   51.60450       -7.4695799E-18
   51.78500       -7.4695857E-18
   51.96550       -7.4695940E-18
   52.14600       -7.4696006E-18
   52.32650       -7.4696072E-18
   52.50700       -7.4696122E-18
   52.68750       -7.4696138E-18
   52.86800       -7.4696130E-18
   53.04850       -7.4696105E-18
   53.22900       -7.4696055E-18
   53.40950       -7.4696006E-18
   53.59000       -7.4695964E-18
   53.77050       -7.4695931E-18
   53.95100       -7.4695923E-18
   54.13150       -7.4695923E-18
   54.31200       -7.4695940E-18
   54.49250       -7.4695973E-18
   54.67300       -7.4695998E-18
   54.85350       -7.4696014E-18
   55.03400       -7.4695998E-18
   55.21450       -7.4695964E-18
   55.39500       -7.4695907E-18
   55.57550       -7.4695824E-18
   55.75600       -7.4695741E-18
   55.93650       -7.4695658E-18
   56.11700       -7.4695592E-18
   56.29750       -7.4695559E-18
   56.47800       -7.4695576E-18
   56.65850       -7.4695625E-18
   56.83900       -7.4695716E-18
   57.01950       -7.4695832E-18
   57.20000       -7.4695964E-18
   57.38050       -7.4696097E-18
   57.56100       -7.4696204E-18
   57.74150       -7.4696279E-18
   57.92200       -7.4696312E-18
   58.10250       -7.4696295E-18
   58.28300       -7.4696237E-18
   58.46350       -7.4696146E-18
   58.64400       -7.4696031E-18
   58.82450       -7.4695907E-18
   59.00500       -7.4695791E-18
   59.18550       -7.4695700E-18
   59.36600       -7.4695650E-18
   59.54650       -7.4695642E-18
   59.72700       -7.4695667E-18
   59.90750       -7.4695725E-18
   60.08800       -7.4695816E-18
   60.26850       -7.4695915E-18
   60.44900       -7.4696014E-18
   60.62950       -7.4696088E-18
   60.81000       -7.4696122E-18
   60.99050       -7.4696113E-18
   61.17100       -7.4696072E-18
   61.35150       -7.4695989E-18
   61.53200       -7.4695890E-18
   61.71250       -7.4695799E-18
   61.89300       -7.4695725E-18
   62.07350       -7.4695683E-18
   62.25400       -7.4695700E-18
   62.43450       -7.4695766E-18
   62.61500       -7.4695873E-18
   62.79550       -7.4695989E-18
   62.97600       -7.4696097E-18
   63.15650       -7.4696179E-18
   63.33700       -7.4696221E-18
   63.51750       -7.4696204E-18
   63.69800       -7.4696130E-18
   63.87850       -7.4696014E-18
   64.05900       -7.4695898E-18
   64.23950       -7.4695782E-18
   64.42000       -7.4695708E-18
   64.60050       -7.4695683E-18
   64.78100       -7.4695716E-18
   64.96150       -7.4695807E-18
   65.14200       -7.4695940E-18
   65.32250       -7.4696072E-18
   65.50300       -7.4696171E-18
   65.68350       -7.4696221E-18
   65.86400       -7.4696196E-18
   66.04450       -7.4696105E-18
   66.22500       -7.4695964E-18
   66.40550       -7.4695791E-18
   66.58600       -7.4695625E-18
   66.76650       -7.4695493E-18
   66.94700       -7.4695427E-18
   67.12750       -7.4695443E-18
   67.30800       -7.4695526E-18
   67.48850       -7.4695658E-18
   67.66900       -7.4695816E-18
   67.84950       -7.4695956E-18
   68.03000       -7.4696055E-18
   68.21050       -7.4696088E-18
   68.39100       -7.4696064E-18
   68.57150       -7.4695981E-18
   68.75200       -7.4695865E-18
   68.93250       -7.4695749E-18
   69.11300       -7.4695667E-18
   69.29350       -7.4695642E-18
   69.47400       -7.4695683E-18
   69.65450       -7.4695782E-18
   69.83500       -7.4695931E-18
   70.01550       -7.4696097E-18
   70.19600       -7.4696254E-18
   70.37650       -7.4696370E-18
   70.55700       -7.4696411E-18
   70.73750       -7.4696386E-18
   70.91800       -7.4696287E-18
   71.09850       -7.4696155E-18
   71.27900       -7.4695998E-18
   71.45950       -7.4695857E-18
   71.64000       -7.4695741E-18
   71.82050       -7.4695683E-18
   72.00100       -7.4695683E-18
   72.18150       -7.4695725E-18
   72.36200       -7.4695791E-18
   72.54250       -7.4695882E-18
   72.72300       -7.4695964E-18
   72.90350       -7.4696014E-18
   73.08400       -7.4696031E-18
   73.26450       -7.4696014E-18
   73.44500       -7.4695981E-18
   73.62550       -7.4695931E-18
   73.80600       -7.4695890E-18
   73.98650       -7.4695865E-18
   74.16700       -7.4695865E-18
   74.34750       -7.4695882E-18
   74.52800       -7.4695923E-18
   74.70850       -7.4695956E-18
   74.88900       -7.4695981E-18
   75.06950       -7.4695981E-18
   75.25000       -7.4695956E-18
   75.43050       -7.4695907E-18
   75.61100       -7.4695849E-18
   75.79150       -7.4695774E-18
   75.97200       -7.4695708E-18
   76.15250       -7.4695658E-18
   76.33300       -7.4695650E-18
   76.51350       -7.4695658E-18
   76.69400       -7.4695700E-18
   76.87450       -7.4695758E-18
   77.05500       -7.4695832E-18
   77.23550       -7.4695915E-18
   77.41600       -7.4695981E-18
   77.59650       -7.4696039E-18
   77.77700       -7.4696064E-18
   77.95750       -7.4696072E-18
   78.13800       -7.4696072E-18
   78.31850       -7.4696047E-18
   78.49900       -7.4696031E-18
   78.67950       -7.4696006E-18
   78.86000       -7.4695989E-18
   79.04050       -7.4695981E-18
   79.22100       -7.4695973E-18
   79.40150       -7.4695973E-18
   79.58200       -7.4695973E-18
   79.76250       -7.4695964E-18
   79.94300       -7.4695931E-18
   80.12350       -7.4695898E-18
   80.30400       -7.4695849E-18
   80.48450       -7.4695799E-18
   80.66500       -7.4695758E-18
   80.84550       -7.4695716E-18
   81.02600       -7.4695700E-18
   81.20650       -7.4695700E-18
   81.38700       -7.4695733E-18
   81.56750       -7.4695791E-18
   81.74800       -7.4695882E-18
   81.92850       -7.4695989E-18
   82.10900       -7.4696097E-18
   82.28950       -7.4696196E-18
   82.47000       -7.4696270E-18
   82.65050       -7.4696320E-18
   82.83100       -7.4696328E-18
   83.01150       -7.4696295E-18
   83.19200       -7.4696229E-18
   83.37250       -7.4696155E-18
   83.55300       -7.4696055E-18
   83.73350       -7.4695973E-18
   83.91400       -7.4695907E-18
   84.09450       -7.4695873E-18
   84.27500       -7.4695865E-18
   84.45550       -7.4695898E-18
   84.63600       -7.4695948E-18
   84.81650       -7.4695998E-18
   84.99700       -7.4696039E-18
   85.17750       -7.4696055E-18
   85.35800       -7.4696039E-18
   85.53850       -7.4695989E-18
   85.71900       -7.4695907E-18
   85.89950       -7.4695799E-18
   86.08000       -7.4695700E-18
   86.26050       -7.4695600E-18
   86.44100       -7.4695559E-18
   86.62150       -7.4695551E-18
   86.80200       -7.4695592E-18
   86.98250       -7.4695675E-18
   87.16300       -7.4695782E-18
   87.34350       -7.4695898E-18
   87.52400       -7.4696006E-18
   87.70450       -7.4696088E-18
   87.88500       -7.4696146E-18
   88.06550       -7.4696146E-18
   88.24600       -7.4696113E-18
   88.42650       -7.4696055E-18
   88.60700       -7.4695981E-18
   88.78750       -7.4695915E-18
   88.96800       -7.4695873E-18
   89.14850       -7.4695865E-18
   89.32900       -7.4695873E-18
   89.50950       -7.4695907E-18
   89.69000       -7.4695956E-18
   89.87050       -7.4695998E-18
   90.05100       -7.4696031E-18
   90.23150       -7.4696039E-18
   90.41200       -7.4696006E-18
   90.59250       -7.4695940E-18
   90.77300       -7.4695849E-18
   90.95350       -7.4695749E-18
   91.13400       -7.4695667E-18
   91.31450       -7.4695600E-18
   91.49500       -7.4695584E-18
   91.67550       -7.4695600E-18
   91.85600       -7.4695658E-18
   92.03650       -7.4695758E-18
   92.21700       -7.4695857E-18
   92.39750       -7.4695948E-18
   92.57800       -7.4696014E-18
   92.75850       -7.4696047E-18
   92.93900       -7.4696031E-18
   93.11950       -7.4695989E-18
   93.30000       -7.4695931E-18
   93.48050       -7.4695865E-18
   93.66100       -7.4695807E-18
   93.84150       -7.4695791E-18
   94.02200       -7.4695824E-18
   94.20250       -7.4695890E-18
   94.38300       -7.4695989E-18
   94.56350       -7.4696088E-18
   94.74400       -7.4696179E-18
   94.92450       -7.4696237E-18
   95.10500       -7.4696246E-18
   95.28550       -7.4696213E-18
   95.46600       -7.4696138E-18
   95.64650       -7.4696022E-18
   95.82700       -7.4695915E-18
   96.00750       -7.4695816E-18
   96.18800       -7.4695741E-18
   96.36850       -7.4695716E-18
   96.54900       -7.4695716E-18
   96.72950       -7.4695758E-18
   96.91000       -7.4695807E-18
   97.09050       -7.4695873E-18
   97.27100       -7.4695931E-18
   97.45150       -7.4695973E-18
   97.63200       -7.4695998E-18
   97.81250       -7.4696014E-18
   97.99300       -7.4696014E-18
   98.17350       -7.4696006E-18
   98.35400       -7.4695998E-18
   98.53450       -7.4695981E-18
   98.71500       -7.4695964E-18
   98.89550       -7.4695948E-18
   99.07600       -7.4695931E-18
   99.25650       -7.4695898E-18
   99.43700       -7.4695865E-18
   99.61750       -7.4695832E-18
   99.79800       -7.4695791E-18
   99.97850       -7.4695758E-18
   100.1590       -7.4695733E-18
   100.3395       -7.4695708E-18
   100.5200       -7.4695700E-18
   100.7005       -7.4695691E-18
   100.8810       -7.4695683E-18
   101.0615       -7.4695675E-18
   101.2420       -7.4695658E-18
   101.4225       -7.4695658E-18
   101.6030       -7.4695658E-18
   101.7835       -7.4695675E-18
   101.9640       -7.4695708E-18
   102.1445       -7.4695766E-18
   102.3250       -7.4695849E-18
   102.5055       -7.4695940E-18
   102.6860       -7.4696047E-18
   102.8665       -7.4696146E-18
   103.0470       -7.4696246E-18
   103.2275       -7.4696312E-18
   103.4080       -7.4696345E-18
   103.5885       -7.4696353E-18
   103.7690       -7.4696345E-18
   103.9495       -7.4696304E-18
   104.1300       -7.4696254E-18
   104.3105       -7.4696204E-18
   104.4910       -7.4696163E-18
   104.6715       -7.4696130E-18
   104.8520       -7.4696105E-18
   105.0325       -7.4696088E-18
   105.2130       -7.4696064E-18
   105.3935       -7.4696031E-18
   105.5740       -7.4695981E-18
   105.7545       -7.4695907E-18
   105.9350       -7.4695807E-18
   106.1155       -7.4695691E-18
   106.2960       -7.4695592E-18
   106.4765       -7.4695493E-18
   106.6570       -7.4695427E-18
   106.8375       -7.4695402E-18
   107.0180       -7.4695410E-18
   107.1985       -7.4695460E-18
   107.3790       -7.4695534E-18
   107.5595       -7.4695617E-18
   107.7400       -7.4695708E-18
   107.9205       -7.4695791E-18
   108.1010       -7.4695857E-18
   108.2815       -7.4695915E-18
   108.4620       -7.4695956E-18
   108.6425       -7.4695998E-18
   108.8230       -7.4696039E-18
   109.0035       -7.4696097E-18
   109.1840       -7.4696163E-18
   109.3645       -7.4696246E-18
   109.5450       -7.4696345E-18
   109.7255       -7.4696428E-18
   109.9060       -7.4696494E-18
   110.0865       -7.4696519E-18
   110.2670       -7.4696486E-18
   110.4475       -7.4696403E-18
   110.6280       -7.4696279E-18
   110.8085       -7.4696105E-18
   110.9890       -7.4695931E-18
   111.1695       -7.4695766E-18
   111.3500       -7.4695625E-18
   111.5305       -7.4695534E-18
   111.7110       -7.4695493E-18
   111.8915       -7.4695493E-18
   112.0720       -7.4695526E-18
   112.2525       -7.4695567E-18
   112.4330       -7.4695617E-18
   112.6135       -7.4695650E-18
   112.7940       -7.4695650E-18
   112.9745       -7.4695634E-18
   113.1550       -7.4695609E-18
   113.3355       -7.4695592E-18
   113.5160       -7.4695617E-18
   113.6965       -7.4695683E-18
   113.8770       -7.4695799E-18
   114.0575       -7.4695964E-18
   114.2380       -7.4696155E-18
   114.4185       -7.4696361E-18
   114.5990       -7.4696527E-18
   114.7795       -7.4696643E-18
   114.9600       -7.4696684E-18
   115.1405       -7.4696659E-18
   115.3210       -7.4696577E-18
   115.5015       -7.4696461E-18
   115.6820       -7.4696337E-18
   115.8625       -7.4696229E-18
   116.0430       -7.4696163E-18
   116.2235       -7.4696122E-18
   116.4040       -7.4696113E-18
   116.5845       -7.4696122E-18
   116.7650       -7.4696122E-18
   116.9455       -7.4696097E-18
   117.1260       -7.4696031E-18
   117.3065       -7.4695923E-18
   117.4870       -7.4695774E-18
   117.6675       -7.4695609E-18
   117.8480       -7.4695443E-18
   118.0285       -7.4695303E-18
   118.2090       -7.4695220E-18
   118.3895       -7.4695195E-18
   118.5700       -7.4695236E-18
   118.7505       -7.4695327E-18
   118.9310       -7.4695443E-18
   119.1115       -7.4695576E-18
   119.2920       -7.4695683E-18
   119.4725       -7.4695766E-18
   119.6530       -7.4695807E-18
   119.8335       -7.4695816E-18
   120.0140       -7.4695807E-18
   120.1945       -7.4695816E-18
   120.3750       -7.4695840E-18
   120.5555       -7.4695907E-18
   120.7360       -7.4695989E-18
   120.9165       -7.4696080E-18
   121.0970       -7.4696171E-18
   121.2775       -7.4696237E-18
   121.4580       -7.4696262E-18
   121.6385       -7.4696246E-18
   121.8190       -7.4696188E-18
   121.9995       -7.4696105E-18
   122.1800       -7.4696006E-18
   122.3605       -7.4695923E-18
   122.5410       -7.4695865E-18
   122.7215       -7.4695857E-18
   122.9020       -7.4695882E-18
   123.0825       -7.4695931E-18
   123.2630       -7.4695989E-18
   123.4435       -7.4696022E-18
   123.6240       -7.4696022E-18
   123.8045       -7.4695981E-18
   123.9850       -7.4695898E-18
   124.1655       -7.4695782E-18
   124.3460       -7.4695675E-18
   124.5265       -7.4695584E-18
   124.7070       -7.4695534E-18
   124.8875       -7.4695543E-18
   125.0680       -7.4695617E-18
   125.2485       -7.4695749E-18
   125.4290       -7.4695907E-18
   125.6095       -7.4696047E-18
   125.7900       -7.4696163E-18
   125.9705       -7.4696221E-18
   126.1510       -7.4696213E-18
   126.3315       -7.4696155E-18
   126.5120       -7.4696055E-18
   126.6925       -7.4695940E-18
   126.8730       -7.4695832E-18
   127.0535       -7.4695758E-18
   127.2340       -7.4695741E-18
   127.4145       -7.4695774E-18
   127.5950       -7.4695849E-18
   127.7755       -7.4695940E-18
   127.9560       -7.4696022E-18
   128.1365       -7.4696080E-18
   128.3170       -7.4696088E-18
   128.4975       -7.4696047E-18
   128.6780       -7.4695956E-18
   128.8585       -7.4695849E-18
   129.0390       -7.4695741E-18
   129.2195       -7.4695658E-18
   129.4000       -7.4695617E-18
   129.5805       -7.4695634E-18
   129.7610       -7.4695700E-18
   129.9415       -7.4695782E-18
   130.1220       -7.4695882E-18
   130.3025       -7.4695981E-18
   130.4830       -7.4696047E-18
   130.6635       -7.4696088E-18
   130.8440       -7.4696088E-18
   131.0245       -7.4696055E-18
   131.2050       -7.4696006E-18
   131.3855       -7.4695948E-18
   131.5660       -7.4695898E-18
   131.7465       -7.4695857E-18
   131.9270       -7.4695840E-18
   132.1075       -7.4695849E-18
   132.2880       -7.4695882E-18
   132.4685       -7.4695931E-18
   132.6490       -7.4695998E-18
   132.8295       -7.4696064E-18
   133.0100       -7.4696138E-18
   133.1905       -7.4696188E-18
   133.3710       -7.4696221E-18
   133.5515       -7.4696237E-18
   133.7320       -7.4696237E-18
   133.9125       -7.4696204E-18
   134.0930       -7.4696163E-18
   134.2735       -7.4696097E-18
   134.4540       -7.4696022E-18
   134.6345       -7.4695948E-18
   134.8150       -7.4695873E-18
   134.9955       -7.4695807E-18
   135.1760       -7.4695758E-18
   135.3565       -7.4695725E-18
   135.5370       -7.4695708E-18
   135.7175       -7.4695708E-18
   135.8980       -7.4695725E-18
   136.0785       -7.4695749E-18
   136.2590       -7.4695774E-18
   136.4395       -7.4695807E-18
   136.6200       -7.4695840E-18
   136.8005       -7.4695873E-18
   136.9810       -7.4695923E-18
   137.1615       -7.4695973E-18
   137.3420       -7.4696039E-18
   137.5225       -7.4696105E-18
   137.7030       -7.4696163E-18
   137.8835       -7.4696196E-18
   138.0640       -7.4696221E-18
   138.2445       -7.4696213E-18
   138.4250       -7.4696179E-18
   138.6055       -7.4696122E-18
   138.7860       -7.4696039E-18
   138.9665       -7.4695948E-18
   139.1470       -7.4695873E-18
   139.3275       -7.4695816E-18
   139.5080       -7.4695774E-18
   139.6885       -7.4695749E-18
   139.8690       -7.4695749E-18
   140.0495       -7.4695749E-18
   140.2300       -7.4695741E-18
   140.4105       -7.4695725E-18
   140.5910       -7.4695691E-18
   140.7715       -7.4695650E-18
   140.9520       -7.4695600E-18
   141.1325       -7.4695559E-18
   141.3130       -7.4695526E-18
   141.4935       -7.4695534E-18
   141.6740       -7.4695584E-18
   141.8545       -7.4695675E-18
   142.0350       -7.4695774E-18
   142.2155       -7.4695882E-18
   142.3960       -7.4695973E-18
   142.5765       -7.4696022E-18
   142.7570       -7.4696031E-18
   142.9375       -7.4695998E-18
   143.1180       -7.4695923E-18
   143.2985       -7.4695832E-18
   143.4790       -7.4695741E-18
   143.6595       -7.4695683E-18
   143.8400       -7.4695675E-18
   144.0205       -7.4695716E-18
   144.2010       -7.4695816E-18
   144.3815       -7.4695948E-18
   144.5620       -7.4696105E-18
   144.7425       -7.4696246E-18
   144.9230       -7.4696361E-18
   145.1035       -7.4696428E-18
   145.2840       -7.4696436E-18
   145.4645       -7.4696403E-18
   145.6450       -7.4696328E-18
   145.8255       -7.4696246E-18
   146.0060       -7.4696171E-18
   146.1865       -7.4696113E-18
   146.3670       -7.4696097E-18
   146.5475       -7.4696113E-18
   146.7280       -7.4696146E-18
   146.9085       -7.4696179E-18
   147.0890       -7.4696196E-18
   147.2695       -7.4696171E-18
   147.4500       -7.4696105E-18
   147.6305       -7.4696006E-18
   147.8110       -7.4695857E-18
   147.9915       -7.4695691E-18
   148.1720       -7.4695518E-18
   148.3525       -7.4695361E-18
   148.5330       -7.4695253E-18
   148.7135       -7.4695203E-18
   148.8940       -7.4695212E-18