  -15.000000        5.03830293E-18
  -14.819500        5.03830293E-18
  -14.639000        5.03830293E-18
  -14.458500        5.03830334E-18
  -14.278000        5.03830417E-18
  -14.097500        5.03830417E-18
  -13.917000        5.03830376E-18
  -13.736500        5.03830334E-18
  -13.556000        5.03830252E-18
  -13.375500        5.03830169E-18
  -13.195000        5.03830128E-18
  -13.014500        5.03830169E-18
  -12.834000        5.03830252E-18
  -12.653500        5.03830376E-18
  -12.473000        5.03830541E-18
  -12.292500        5.03830541E-18
  -12.112000        5.03830500E-18
  -11.931500        5.03830293E-18
  -11.751000        5.03830169E-18
  -11.570500        5.03830169E-18
  -11.390000        5.03830252E-18
  -11.209500        5.03830293E-18
  -11.029000        5.03830376E-18
  -10.848500        5.03830500E-18
  -10.668000        5.03830624E-18
  -10.487500        5.03830624E-18
  -10.307000        5.03830541E-18
  -10.126500        5.03830417E-18
  -9.9460001        5.03830293E-18
  -9.7655001        5.03830169E-18
  -9.5850000        5.03830169E-18
  -9.4045000        5.03830252E-18
  -9.2240000        5.03830334E-18
  -9.0434999        5.03830417E-18
  -8.8629999        5.03830500E-18
  -8.6824999        5.03830500E-18
  -8.5019999        5.03830459E-18
  -8.3214998        5.03830293E-18
  -8.1409998        5.03830210E-18
  -7.9604998        5.03830128E-18
  -7.7800002        5.03830128E-18
  -7.5995002        5.03830293E-18
  -7.4190001        5.03830459E-18
  -7.2385001        5.03830624E-18
  -7.0580001        5.03830624E-18
  -6.8775001        5.03830624E-18
  -6.6970000        5.03830541E-18
  -6.5165000        5.03830376E-18
  -6.3360000        5.03830293E-18
  -6.1554999        5.03830417E-18
  -5.9749999        5.03830583E-18
  -5.7944999        5.03830789E-18
  -5.6139998        5.03830872E-18
  -5.4334998        5.03830707E-18
  -5.2529998        5.03830459E-18
  -5.0725002        5.03830128E-18
  -4.8920002        5.03829838E-18
  -4.7115002        5.03829714E-18
  -4.5310001        5.03829879E-18
  -4.3505001        5.03830128E-18
  -4.1700001        5.03830459E-18
  -3.9895000        5.03830624E-18
  -3.8090000        5.03830541E-18
  -3.6285000        5.03830293E-18
  -3.4480000        5.03830004E-18
  -3.2674999        5.03829797E-18
  -3.0869999        5.03829879E-18
  -2.9065001        5.03830086E-18
  -2.7260001        5.03830417E-18
  -2.5455000        5.03830748E-18
  -2.3650000        5.03830831E-18
  -2.1845000        5.03830707E-18
  -2.0039999        5.03830417E-18
  -1.8235000        5.03830086E-18
  -1.6430000        5.03829797E-18
  -1.4625000        5.03829755E-18
  -1.2819999        5.03830004E-18
  -1.1015000        5.03830334E-18
 -0.92100000        5.03830665E-18
 -0.74049997        5.03830831E-18
 -0.56000000        5.03830789E-18
 -0.37950000        5.03830500E-18
 -0.19900000        5.03830210E-18
 -1.85000002E-02    5.03830004E-18
  0.16200000        5.03830086E-18
  0.34250000        5.03830376E-18
  0.52300000        5.03830789E-18
  0.70349997        5.03831203E-18
  0.88400000        5.03831327E-18
   1.0645000        5.03831079E-18
   1.2450000        5.03830624E-18
   1.4255000        5.03830045E-18
   1.6059999        5.03829673E-18
   1.7865000        5.03829631E-18
   1.9670000        5.03829838E-18
   2.1475000        5.03830210E-18
   2.3280001        5.03830541E-18
   2.5085001        5.03830583E-18
   2.6889999        5.03830334E-18
   2.8694999        5.03829962E-18
   3.0500000        5.03829673E-18
   3.2305000        5.03829631E-18
   3.4110000        5.03830004E-18
   3.5915000        5.03830583E-18
   3.7720001        5.03831203E-18
   3.9525001        5.03831575E-18
   4.1329999        5.03831534E-18
   4.3134999        5.03831038E-18
   4.4940000        5.03830293E-18
   4.6745000        5.03829631E-18
   4.8550000        5.03829300E-18
   5.0355000        5.03829342E-18
   5.2160001        5.03829673E-18
   5.3965001        5.03830086E-18
   5.5770001        5.03830376E-18
   5.7575002        5.03830334E-18
   5.9380002        5.03830004E-18
   6.1185002        5.03829673E-18
   6.2989998        5.03829507E-18
   6.4794998        5.03829590E-18
   6.6599998        5.03830004E-18
   6.8404999        5.03830624E-18
   7.0209999        5.03831244E-18
   7.2014999        5.03831617E-18
   7.3820000        5.03831575E-18
   7.5625000        5.03831162E-18
   7.7430000        5.03830500E-18
   7.9235001        5.03829921E-18
   8.1040001        5.03829673E-18
   8.2845001        5.03829755E-18
   8.4650002        5.03830128E-18
   8.6455002        5.03830500E-18
   8.8260002        5.03830665E-18
   9.0065002        5.03830541E-18
   9.1870003        5.03830252E-18
   9.3675003        5.03829838E-18
   9.5480003        5.03829549E-18
   9.7285004        5.03829673E-18
   9.9090004        5.03830128E-18
   10.089500        5.03830831E-18
   10.270000        5.03831451E-18
   10.450500        5.03831699E-18
   10.631000        5.03831492E-18
   10.811500        5.03830913E-18
   10.992000        5.03830293E-18
   11.172500        5.03829838E-18
   11.353000        5.03829755E-18
   11.533500        5.03830128E-18
   11.714000        5.03830624E-18
   11.894500        5.03831079E-18
   12.075000        5.03831244E-18
   12.255500        5.03830955E-18
   12.436000        5.03830334E-18
   12.616500        5.03829714E-18
   12.797000        5.03829342E-18
   12.977500        5.03829342E-18
   13.158000        5.03829714E-18
   13.338500        5.03830293E-18
   13.519000        5.03830789E-18
   13.699500        5.03830955E-18
   13.880000        5.03830624E-18
   14.060500        5.03830004E-18
   14.241000        5.03829383E-18
   14.421500        5.03829011E-18
   14.602000        5.03829176E-18
   14.782500        5.03829755E-18
   14.963000        5.03830376E-18
   15.143500        5.03830789E-18
   15.324000        5.03830789E-18
   15.504500        5.03830417E-18
   15.685000        5.03829879E-18
   15.865500        5.03829425E-18
   16.046000        5.03829507E-18
   16.226500        5.03829921E-18
   16.407000        5.03830665E-18
   16.587500        5.03831368E-18
   16.768000        5.03831741E-18
   16.948500        5.03831617E-18
   17.129000        5.03831038E-18
   17.309500        5.03830334E-18
   17.490000        5.03829714E-18
   17.670500        5.03829507E-18
   17.851000        5.03829797E-18
   18.031500        5.03830334E-18
   18.212000        5.03830831E-18
   18.392500        5.03830913E-18
   18.573000        5.03830624E-18
   18.753500        5.03829879E-18
   18.934000        5.03829011E-18
   19.114500        5.03828473E-18
   19.295000        5.03828473E-18
   19.475500        5.03829135E-18
   19.656000        5.03830128E-18
   19.836500        5.03831120E-18
   20.017000        5.03831741E-18
   20.197500        5.03831865E-18
   20.378000        5.03831575E-18
   20.558500        5.03831162E-18
   20.739000        5.03830913E-18
   20.919500        5.03831038E-18
   21.100000        5.03831410E-18
   21.280500        5.03831823E-18
   21.461000        5.03831947E-18
   21.641500        5.03831658E-18
   21.822001        5.03830789E-18
   22.002501        5.03829714E-18
   22.183001        5.03828804E-18
   22.363501        5.03828391E-18
   22.544001        5.03828597E-18
   22.724501        5.03829259E-18
   22.905001        5.03830128E-18
   23.085501        5.03830789E-18
   23.266001        5.03830872E-18
   23.446501        5.03830459E-18
   23.627001        5.03829755E-18
   23.807501        5.03829135E-18
   23.988001        5.03828928E-18
   24.168501        5.03829176E-18
   24.349001        5.03829838E-18
   24.529499        5.03830624E-18
   24.709999        5.03831120E-18
   24.890499        5.03831162E-18
   25.070999        5.03830748E-18
   25.251499        5.03830169E-18
   25.431999        5.03829714E-18
   25.612499        5.03829631E-18
   25.792999        5.03829921E-18
   25.973499        5.03830541E-18
   26.153999        5.03831120E-18
   26.334499        5.03831492E-18
   26.514999        5.03831410E-18
   26.695499        5.03830831E-18
   26.875999        5.03830128E-18
   27.056499        5.03829631E-18
   27.237000        5.03829673E-18
   27.417500        5.03830128E-18
   27.598000        5.03830913E-18
   27.778500        5.03831575E-18
   27.959000        5.03831865E-18
   28.139500        5.03831492E-18
   28.320000        5.03830707E-18
   28.500500        5.03829921E-18
   28.681000        5.03829466E-18
   28.861500        5.03829673E-18
   29.042000        5.03830376E-18
   29.222500        5.03831286E-18
   29.403000        5.03831989E-18
   29.583500        5.03832196E-18
   29.764000        5.03831823E-18
   29.944500        5.03831038E-18
   30.125000        5.03830334E-18
   30.305500        5.03830086E-18
   30.486000        5.03830459E-18
   30.666500        5.03831327E-18
   30.847000        5.03832320E-18
   31.027500        5.03832857E-18
   31.208000        5.03832651E-18
   31.388500        5.03831741E-18
   31.569000        5.03830334E-18
   31.749500        5.03829011E-18
   31.930000        5.03828184E-18
   32.110500        5.03828184E-18
   32.291000        5.03828804E-18
   32.471500        5.03829631E-18
   32.652000        5.03830376E-18
   32.832500        5.03830583E-18
   33.013000        5.03830293E-18
   33.193501        5.03829797E-18
   33.374001        5.03829383E-18
   33.554501        5.03829549E-18
   33.735001        5.03830252E-18
   33.915501        5.03831244E-18
   34.096001        5.03832030E-18
   34.276501        5.03832237E-18
   34.457001        5.03831658E-18
   34.637501        5.03830500E-18
   34.818001        5.03829135E-18
   34.998501        5.03828142E-18
   35.179001        5.03827853E-18
   35.359501        5.03828184E-18
   35.540001        5.03828887E-18
   35.720501        5.03829507E-18
   35.901001        5.03829714E-18
   36.081501        5.03829342E-18
   36.262001        5.03828597E-18
   36.442501        5.03827894E-18
   36.623001        5.03827605E-18
   36.803501        5.03828142E-18
   36.984001        5.03829300E-18
   37.164501        5.03830707E-18
   37.345001        5.03831947E-18
   37.525501        5.03832485E-18
   37.706001        5.03832278E-18
   37.886501        5.03831658E-18
   38.067001        5.03830913E-18
   38.247501        5.03830541E-18
   38.428001        5.03830583E-18
   38.608501        5.03831120E-18
   38.789001        5.03831658E-18
   38.969501        5.03831782E-18
   39.150002        5.03831244E-18
   39.330502        5.03830169E-18
   39.511002        5.03828846E-18
   39.691502        5.03827812E-18
   39.872002        5.03827439E-18
   40.052502        5.03827936E-18
   40.233002        5.03829052E-18
   40.413502        5.03830334E-18
   40.594002        5.03831244E-18
   40.774502        5.03831534E-18
   40.955002        5.03831162E-18
   41.135502        5.03830459E-18
   41.316002        5.03829921E-18
   41.496498        5.03829921E-18
   41.676998        5.03830500E-18
   41.857498        5.03831327E-18
   42.037998        5.03832196E-18
   42.218498        5.03832444E-18
   42.398998        5.03832154E-18
   42.579498        5.03831327E-18
   42.759998        5.03830334E-18
   42.940498        5.03829714E-18
   43.120998        5.03829590E-18
   43.301498        5.03829921E-18
   43.481998        5.03830541E-18
   43.662498        5.03830831E-18
   43.842999        5.03830583E-18
   44.023499        5.03829755E-18
   44.203999        5.03828515E-18
   44.384499        5.03827315E-18
   44.564999        5.03826653E-18
   44.745499        5.03826653E-18
   44.925999        5.03827274E-18
   45.106499        5.03828266E-18
   45.286999        5.03829176E-18
   45.467499        5.03829631E-18
   45.647999        5.03829549E-18
   45.828499        5.03829176E-18
   46.008999        5.03828846E-18
   46.189499        5.03828887E-18
   46.369999        5.03829590E-18
   46.550499        5.03830872E-18
   46.730999        5.03832278E-18
   46.911499        5.03833312E-18
   47.091999        5.03833560E-18
   47.272499        5.03833147E-18
   47.452999        5.03832237E-18
   47.633499        5.03831286E-18
   47.813999        5.03830872E-18
   47.994499        5.03831038E-18
   48.174999        5.03831741E-18
   48.355499        5.03832444E-18
   48.535999        5.03832651E-18
   48.716499        5.03832154E-18
   48.896999        5.03831203E-18
   49.077499        5.03830004E-18
   49.257999        5.03829135E-18
   49.438499        5.03829011E-18
   49.618999        5.03829714E-18
   49.799500        5.03830872E-18
   49.980000        5.03831989E-18
   50.160500        5.03832444E-18
   50.341000        5.03832237E-18
   50.521500        5.03831286E-18
   50.702000        5.03830252E-18
   50.882500        5.03829590E-18
   51.063000        5.03829631E-18
   51.243500        5.03830293E-18
   51.424000        5.03831162E-18
   51.604500        5.03831699E-18
   51.785000        5.03831410E-18
   51.965500        5.03830293E-18
   52.146000        5.03828887E-18
   52.326500        5.03827563E-18
   52.507000        5.03826984E-18
   52.687500        5.03827274E-18
   52.868000        5.03828349E-18
   53.048500        5.03829714E-18
   53.229000        5.03830748E-18
   53.409500        5.03831038E-18
   53.590000        5.03830665E-18
   53.770500        5.03829962E-18
   53.951000        5.03829342E-18
   54.131500        5.03829259E-18
   54.312000        5.03829879E-18
   54.492500        5.03830872E-18
   54.673000        5.03831782E-18
   54.853500        5.03832237E-18
   55.034000        5.03831906E-18
   55.214500        5.03831079E-18
   55.395000        5.03830169E-18
   55.575500        5.03829507E-18
   55.756001        5.03829425E-18
   55.936501        5.03830045E-18
   56.117001        5.03830996E-18
   56.297501        5.03831782E-18
   56.478001        5.03832072E-18
   56.658501        5.03831699E-18
   56.839001        5.03830831E-18
   57.019501        5.03829879E-18
   57.200001        5.03829300E-18
   57.380501        5.03829342E-18
   57.561001        5.03830045E-18
   57.741501        5.03830955E-18
   57.922001        5.03831575E-18
   58.102501        5.03831699E-18
   58.283001        5.03831120E-18
   58.463501        5.03830004E-18
   58.644001        5.03828928E-18
   58.824501        5.03828266E-18
   59.005001        5.03828308E-18
   59.185501        5.03828970E-18
   59.366001        5.03829797E-18
   59.546501        5.03830376E-18
   59.727001        5.03830417E-18
   59.907501        5.03829879E-18
   60.088001        5.03829052E-18
   60.268501        5.03828308E-18
   60.449001        5.03828060E-18
   60.629501        5.03828515E-18
   60.810001        5.03829631E-18
   60.990501        5.03830955E-18
   61.171001        5.03831906E-18
   61.351501        5.03832237E-18
   61.532001        5.03831989E-18
   61.712502        5.03831492E-18
   61.893002        5.03831120E-18
   62.073502        5.03831120E-18
   62.254002        5.03831617E-18
   62.434502        5.03832237E-18
   62.615002        5.03832651E-18
   62.795502        5.03832651E-18
   62.976002        5.03832072E-18
   63.156502        5.03830996E-18
   63.337002        5.03829879E-18
   63.517502        5.03829176E-18
   63.698002        5.03829094E-18
   63.878502        5.03829590E-18
   64.058998        5.03830459E-18
   64.239502        5.03831203E-18
   64.419998        5.03831534E-18
   64.600502        5.03831368E-18
   64.780998        5.03830831E-18
   64.961502        5.03830293E-18
   65.141998        5.03830086E-18
   65.322502        5.03830500E-18
   65.502998        5.03831327E-18
   65.683502        5.03832278E-18
   65.863998        5.03833023E-18
   66.044502        5.03833271E-18
   66.224998        5.03833064E-18
   66.405502        5.03832444E-18
   66.585999        5.03831741E-18
   66.766502        5.03831203E-18
   66.946999        5.03831038E-18
   67.127502        5.03831038E-18
   67.307999        5.03831038E-18
   67.488503        5.03830707E-18
   67.668999        5.03830045E-18
   67.849503        5.03829011E-18
   68.029999        5.03827853E-18
   68.210503        5.03827067E-18
   68.390999        5.03826778E-18
   68.571503        5.03827026E-18
   68.751999        5.03827646E-18
   68.932503        5.03828308E-18
   69.112999        5.03828721E-18
   69.293503        5.03828846E-18
   69.473999        5.03828639E-18
   69.654503        5.03828391E-18
   69.834999        5.03828184E-18
   70.015503        5.03828266E-18
   70.195999        5.03828639E-18
   70.376503        5.03829218E-18
   70.556999        5.03829797E-18
   70.737503        5.03830169E-18
   70.917999        5.03830252E-18
   71.098503        5.03830169E-18
   71.278999        5.03830169E-18
   71.459503        5.03830417E-18
   71.639999        5.03831162E-18
   71.820503        5.03832154E-18
   72.000999        5.03833188E-18
   72.181503        5.03833974E-18
   72.362000        5.03834264E-18
   72.542503        5.03834098E-18
   72.723000        5.03833602E-18
   72.903503        5.03833023E-18
   73.084000        5.03832526E-18
   73.264503        5.03832320E-18
   73.445000        5.03832320E-18
   73.625504        5.03832196E-18
   73.806000        5.03831782E-18
   73.986504        5.03831120E-18
   74.167000        5.03830252E-18
   74.347504        5.03829342E-18
   74.528000        5.03828556E-18
   74.708504        5.03828018E-18
   74.889000        5.03827812E-18
   75.069504        5.03827770E-18
   75.250000        5.03827729E-18
   75.430496        5.03827398E-18
   75.611000        5.03826943E-18
   75.791496        5.03826405E-18
   75.972000        5.03826033E-18
   76.152496        5.03826033E-18
   76.333000        5.03826364E-18
   76.513496        5.03826943E-18
   76.694000        5.03827605E-18
   76.874496        5.03828225E-18
   77.055000        5.03828721E-18
   77.235497        5.03829135E-18
   77.416000        5.03829466E-18
   77.596497        5.03829962E-18
   77.777000        5.03830624E-18
   77.957497        5.03831451E-18
   78.138000        5.03832361E-18
   78.318497        5.03833105E-18
   78.499001        5.03833560E-18
   78.679497        5.03833726E-18
   78.860001        5.03833560E-18
   79.040497        5.03833312E-18
   79.221001        5.03833064E-18
   79.401497        5.03833188E-18
   79.582001        5.03833436E-18
   79.762497        5.03833685E-18
   79.943001        5.03833767E-18
   80.123497        5.03833519E-18
   80.304001        5.03832940E-18
   80.484497        5.03831989E-18
   80.665001        5.03830913E-18
   80.845497        5.03829962E-18
   81.026001        5.03829259E-18
   81.206497        5.03828970E-18
   81.387001        5.03828970E-18
   81.567497        5.03829176E-18
   81.748001        5.03829259E-18
   81.928497        5.03829135E-18
   82.109001        5.03828928E-18
   82.289497        5.03828763E-18
   82.470001        5.03828680E-18
   82.650497        5.03828763E-18
   82.831001        5.03829011E-18
   83.011497        5.03829300E-18
   83.192001        5.03829507E-18
   83.372498        5.03829466E-18
   83.553001        5.03829383E-18
   83.733498        5.03829342E-18
   83.914001        5.03829507E-18
   84.094498        5.03829755E-18
   84.275002        5.03830210E-18
   84.455498        5.03830665E-18
   84.636002        5.03831079E-18
   84.816498        5.03831327E-18
   84.997002        5.03831327E-18
   85.177498        5.03831244E-18
   85.358002        5.03830996E-18
   85.538498        5.03830789E-18
   85.719002        5.03830624E-18
   85.899498        5.03830500E-18
   86.080002        5.03830376E-18
   86.260498        5.03830252E-18
   86.441002        5.03829962E-18
   86.621498        5.03829549E-18
   86.802002        5.03828970E-18
   86.982498        5.03828432E-18
   87.163002        5.03827894E-18
   87.343498        5.03827646E-18
   87.524002        5.03827770E-18
   87.704498        5.03828101E-18
   87.885002        5.03828639E-18
   88.065498        5.03829135E-18
   88.246002        5.03829673E-18
   88.426498        5.03830086E-18
   88.607002        5.03830500E-18
   88.787498        5.03830831E-18
   88.968002        5.03831120E-18
   89.148499        5.03831451E-18
   89.329002        5.03831782E-18
   89.509499        5.03832072E-18
   89.690002        5.03832196E-18
   89.870499        5.03832196E-18
   90.051003        5.03832072E-18
   90.231499        5.03831989E-18
   90.412003        5.03831947E-18
   90.592499        5.03832072E-18
   90.773003        5.03832402E-18
   90.953499        5.03832816E-18
   91.134003        5.03833188E-18
   91.314499        5.03833478E-18
   91.495003        5.03833602E-18
   91.675499        5.03833436E-18
   91.856003        5.03833105E-18
   92.036499        5.03832609E-18
   92.217003        5.03832030E-18
   92.397499        5.03831286E-18
   92.578003        5.03830459E-18
   92.758499        5.03829466E-18
   92.939003        5.03828473E-18
   93.119499        5.03827646E-18
   93.300003        5.03826902E-18
   93.480499        5.03826447E-18
   93.661003        5.03826323E-18
   93.841499        5.03826364E-18
   94.022003        5.03826529E-18
   94.202499        5.03826860E-18
   94.383003        5.03827274E-18
   94.563499        5.03827812E-18
   94.744003        5.03828432E-18
   94.924500        5.03829094E-18
   95.105003        5.03829755E-18
   95.285500        5.03830293E-18
   95.466003        5.03830624E-18
   95.646500        5.03830789E-18
   95.827003        5.03830996E-18
   96.007500        5.03831162E-18
   96.188004        5.03831451E-18
   96.368500        5.03831823E-18
   96.549004        5.03832072E-18
   96.729500        5.03832113E-18
   96.910004        5.03831989E-18
   97.090500        5.03831782E-18
   97.271004        5.03831534E-18
   97.451500        5.03831410E-18
   97.632004        5.03831492E-18
   97.812500        5.03831782E-18
   97.992996        5.03832113E-18
   98.173500        5.03832444E-18
   98.353996        5.03832651E-18
   98.534500        5.03832609E-18
   98.714996        5.03832402E-18
   98.895500        5.03832072E-18
   99.075996        5.03831823E-18
   99.256500        5.03831658E-18
   99.436996        5.03831492E-18
   99.617500        5.03831244E-18
   99.797997        5.03830872E-18
   99.978500        5.03830252E-18
   100.15900        5.03829342E-18
   100.33950        5.03828142E-18
   100.52000        5.03827067E-18
   100.70050        5.03826033E-18
   100.88100        5.03825330E-18
   101.06150        5.03824916E-18
   101.24200        5.03824834E-18
   101.42250        5.03824834E-18
   101.60300        5.03824834E-18
   101.78350        5.03824999E-18
   101.96400        5.03825330E-18
   102.14450        5.03825992E-18
   102.32500        5.03826943E-18
   102.50550        5.03828101E-18
   102.68600        5.03829383E-18
   102.86650        5.03830624E-18
   103.04700        5.03831782E-18
   103.22750        5.03832609E-18
   103.40800        5.03833271E-18
   103.58850        5.03833726E-18
   103.76900        5.03834098E-18
   103.94950        5.03834512E-18
   104.13000        5.03834801E-18
   104.31050        5.03835008E-18
   104.49100        5.03835008E-18
   104.67150        5.03834677E-18
   104.85200        5.03833891E-18
   105.03250        5.03832568E-18
   105.21300        5.03830955E-18
   105.39350        5.03829300E-18
   105.57400        5.03827894E-18
   105.75450        5.03826902E-18
   105.93500        5.03826281E-18
   106.11550        5.03825826E-18
   106.29600        5.03825371E-18
   106.47650        5.03824834E-18
   106.65700        5.03824461E-18
   106.83750        5.03824337E-18
   107.01800        5.03824544E-18
   107.19850        5.03825206E-18
   107.37900        5.03826199E-18
   107.55950        5.03827481E-18
   107.74000        5.03828721E-18
   107.92050        5.03829921E-18
   108.10100        5.03830996E-18
   108.28150        5.03831865E-18
   108.46200        5.03832692E-18
   108.64250        5.03833436E-18
   108.82300        5.03834139E-18
   109.00350        5.03834801E-18
   109.18400        5.03835298E-18
   109.36450        5.03835504E-18
   109.54500        5.03835422E-18
   109.72550        5.03834967E-18
   109.90600        5.03834388E-18
   110.08650        5.03833809E-18
   110.26700        5.03833436E-18
   110.44750        5.03833312E-18
   110.62800        5.03833354E-18
   110.80850        5.03833436E-18
   110.98900        5.03833312E-18
   111.16950        5.03832981E-18
   111.35000        5.03832402E-18
   111.53050        5.03831575E-18
   111.71100        5.03830831E-18
   111.89150        5.03830293E-18
   112.07200        5.03829962E-18
   112.25250        5.03829797E-18
   112.43300        5.03829590E-18
   112.61350        5.03829300E-18
   112.79400        5.03828928E-18
   112.97450        5.03828432E-18
   113.15500        5.03827770E-18
   113.33550        5.03827150E-18
   113.51600        5.03826736E-18
   113.69650        5.03826447E-18
   113.87700        5.03826281E-18
   114.05750        5.03826240E-18
   114.23800        5.03826323E-18
   114.41850        5.03826447E-18
   114.59900        5.03826653E-18
   114.77950        5.03827067E-18
   114.96000        5.03827646E-18
   115.14050        5.03828473E-18
   115.32100        5.03829549E-18
   115.50150        5.03830748E-18
   115.68200        5.03831989E-18
   115.86250        5.03833105E-18
   116.04300        5.03834098E-18
   116.22350        5.03834718E-18
   116.40400        5.03835091E-18
   116.58450        5.03835422E-18
   116.76500        5.03835670E-18
   116.94550        5.03835877E-18
   117.12600        5.03835918E-18
   117.30650        5.03835711E-18
   117.48700        5.03835091E-18
   117.66750        5.03834098E-18
   117.84800        5.03833023E-18
   118.02850        5.03831906E-18
   118.20900        5.03830996E-18
   118.38950        5.03830210E-18
   118.57000        5.03829549E-18
   118.75050        5.03829052E-18
   118.93100        5.03828597E-18
   119.11150        5.03828060E-18
   119.29200        5.03827522E-18
   119.47250        5.03826984E-18
   119.65300        5.03826695E-18
   119.83350        5.03826695E-18
   120.01400        5.03826984E-18
   120.19450        5.03827522E-18
   120.37500        5.03828308E-18
   120.55550        5.03829011E-18
   120.73600        5.03829673E-18
   120.91650        5.03830210E-18
   121.09700        5.03830583E-18
   121.27750        5.03830624E-18
   121.45800        5.03830665E-18
   121.63850        5.03830707E-18
   121.81900        5.03830748E-18
   121.99950        5.03830748E-18
   122.18000        5.03830624E-18
   122.36050        5.03830169E-18
   122.54100        5.03829631E-18
   122.72150        5.03829094E-18
   122.90200        5.03828639E-18
   123.08250        5.03828391E-18
   123.26300        5.03828391E-18
   123.44350        5.03828473E-18
   123.62400        5.03828432E-18
   123.80450        5.03828349E-18
   123.98500        5.03828142E-18
   124.16550        5.03828060E-18
   124.34600        5.03828018E-18
   124.52650        5.03828018E-18
   124.70700        5.03828225E-18
   124.88750        5.03828639E-18
   125.06800        5.03829135E-18
   125.24850        5.03829631E-18
   125.42900        5.03830004E-18
   125.60950        5.03830004E-18
   125.79000        5.03829879E-18
   125.97050        5.03829673E-18
   126.15100        5.03829631E-18
   126.33150        5.03829755E-18
   126.51200        5.03830210E-18
   126.69250        5.03830707E-18
   126.87300        5.03831079E-18
   127.05350        5.03831286E-18
   127.23400        5.03831244E-18
   127.41450        5.03831162E-18
   127.59500        5.03831162E-18
   127.77550        5.03831492E-18
   127.95600        5.03831989E-18
   128.13651        5.03832733E-18
   128.31700        5.03833519E-18
   128.49750        5.03834057E-18
   128.67799        5.03834346E-18
   128.85851        5.03834264E-18
   129.03900        5.03834015E-18
   129.21950        5.03833685E-18
   129.39999        5.03833354E-18
   129.58051        5.03832940E-18
   129.76100        5.03832526E-18
   129.94150        5.03832030E-18
   130.12199        5.03831492E-18
   130.30251        5.03830665E-18
   130.48300        5.03829838E-18
   130.66350        5.03828928E-18
   130.84399        5.03828018E-18
   131.02451        5.03827233E-18
   131.20500        5.03826653E-18
   131.38550        5.03826199E-18
   131.56599        5.03825992E-18
   131.74651        5.03825868E-18
   131.92700        5.03825826E-18
   132.10750        5.03825909E-18
   132.28799        5.03826157E-18
   132.46851        5.03826612E-18
   132.64900        5.03827481E-18
   132.82950        5.03828680E-18
   133.00999        5.03830045E-18
   133.19051        5.03831244E-18
   133.37100        5.03832237E-18
   133.55150        5.03832775E-18
   133.73199        5.03832857E-18
   133.91251        5.03832775E-18
   134.09300        5.03832651E-18
   134.27350        5.03832609E-18
   134.45399        5.03832733E-18
   134.63451        5.03832940E-18
   134.81500        5.03833147E-18
   134.99550        5.03833395E-18
   135.17599        5.03833478E-18
   135.35651        5.03833395E-18
   135.53700        5.03833188E-18
   135.71750        5.03832899E-18
   135.89799        5.03832692E-18
   136.07851        5.03832526E-18
   136.25900        5.03832402E-18
   136.43950        5.03832361E-18
   136.62000        5.03832072E-18
   136.80051        5.03831575E-18
   136.98100        5.03830872E-18
   137.16150        5.03830128E-18
   137.34200        5.03829383E-18
   137.52251        5.03828763E-18
   137.70300        5.03828432E-18
   137.88350        5.03828266E-18
   138.06400        5.03828101E-18
   138.24451        5.03827812E-18
   138.42500        5.03827439E-18
   138.60550        5.03826984E-18
   138.78600        5.03826695E-18
   138.96651        5.03826695E-18
   139.14700        5.03827026E-18
   139.32750        5.03827605E-18
   139.50800        5.03828266E-18