  -15.000000        6.37100009E-18
  -14.819500        6.37100009E-18
  -14.639000        6.37100009E-18
  -14.458500        6.37100009E-18
  -14.278000        6.37100009E-18
  -14.097500        6.37100091E-18
  -13.917000        6.37100133E-18
  -13.736500        6.37100133E-18
  -13.556000        6.37100133E-18
  -13.375500        6.37100133E-18
  -13.195000        6.37100133E-18
  -13.014500        6.37100133E-18
  -12.834000        6.37100091E-18
  -12.653500        6.37100009E-18
  -12.473000        6.37099967E-18
  -12.292500        6.37099884E-18
  -12.112000        6.37099884E-18
  -11.931500        6.37099884E-18
  -11.751000        6.37099926E-18
  -11.570500        6.37100009E-18
  -11.390000        6.37100050E-18
  -11.209500        6.37100133E-18
  -11.029000        6.37100174E-18
  -10.848500        6.37100257E-18
  -10.668000        6.37100257E-18
  -10.487500        6.37100298E-18
  -10.307000        6.37100257E-18
  -10.126500        6.37100174E-18
  -9.9460001        6.37100133E-18
  -9.7655001        6.37100050E-18
  -9.5850000        6.37100009E-18
  -9.4045000        6.37100009E-18
  -9.2240000        6.37099967E-18
  -9.0434999        6.37100009E-18
  -8.8629999        6.37100091E-18
  -8.6824999        6.37100133E-18
  -8.5019999        6.37100174E-18
  -8.3214998        6.37100257E-18
  -8.1409998        6.37100298E-18
  -7.9604998        6.37100381E-18
  -7.7800002        6.37100381E-18
  -7.5995002        6.37100381E-18
  -7.4190001        6.37100298E-18
  -7.2385001        6.37100257E-18
  -7.0580001        6.37100174E-18
  -6.8775001        6.37100009E-18
  -6.6970000        6.37099884E-18
  -6.5165000        6.37099802E-18
  -6.3360000        6.37099802E-18
  -6.1554999        6.37099802E-18
  -5.9749999        6.37099884E-18
  -5.7944999        6.37099967E-18
  -5.6139998        6.37100133E-18
  -5.4334998        6.37100257E-18
  -5.2529998        6.37100381E-18
  -5.0725002        6.37100381E-18
  -4.8920002        6.37100339E-18
  -4.7115002        6.37100215E-18
  -4.5310001        6.37100091E-18
  -4.3505001        6.37099967E-18
  -4.1700001        6.37099802E-18
  -3.9895000        6.37099719E-18
  -3.8090000        6.37099760E-18
  -3.6285000        6.37099926E-18
  -3.4480000        6.37100050E-18
  -3.2674999        6.37100215E-18
  -3.0869999        6.37100298E-18
  -2.9065001        6.37100339E-18
  -2.7260001        6.37100339E-18
  -2.5455000        6.37100215E-18
  -2.3650000        6.37099967E-18
  -2.1845000        6.37099678E-18
  -2.0039999        6.37099347E-18
  -1.8235000        6.37099140E-18
  -1.6430000        6.37099057E-18
  -1.4625000        6.37099099E-18
  -1.2819999        6.37099264E-18
  -1.1015000        6.37099636E-18
 -0.92100000        6.37100050E-18
 -0.74049997        6.37100463E-18
 -0.56000000        6.37100794E-18
 -0.37950000        6.37101043E-18
 -0.19900000        6.37101125E-18
 -1.85000002E-02    6.37101084E-18
  0.16200000        6.37100794E-18
  0.34250000        6.37100422E-18
  0.52300000        6.37100091E-18
  0.70349997        6.37099802E-18
  0.88400000        6.37099636E-18
   1.0645000        6.37099636E-18
   1.2450000        6.37099802E-18
   1.4255000        6.37100091E-18
   1.6059999        6.37100381E-18
   1.7865000        6.37100712E-18
   1.9670000        6.37100918E-18
   2.1475000        6.37101001E-18
   2.3280001        6.37100877E-18
   2.5085001        6.37100629E-18
   2.6889999        6.37100298E-18
   2.8694999        6.37099926E-18
   3.0500000        6.37099636E-18
   3.2305000        6.37099347E-18
   3.4110000        6.37099223E-18
   3.5915000        6.37099305E-18
   3.7720001        6.37099471E-18
   3.9525001        6.37099802E-18
   4.1329999        6.37100133E-18
   4.3134999        6.37100505E-18
   4.4940000        6.37100836E-18
   4.6745000        6.37101084E-18
   4.8550000        6.37101125E-18
   5.0355000        6.37100960E-18
   5.2160001        6.37100629E-18
   5.3965001        6.37100215E-18
   5.5770001        6.37099719E-18
   5.7575002        6.37099305E-18
   5.9380002        6.37099099E-18
   6.1185002        6.37099057E-18
   6.2989998        6.37099181E-18
   6.4794998        6.37099512E-18
   6.6599998        6.37099884E-18
   6.8404999        6.37100298E-18
   7.0209999        6.37100629E-18
   7.2014999        6.37100794E-18
   7.3820000        6.37100753E-18
   7.5625000        6.37100546E-18
   7.7430000        6.37100091E-18
   7.9235001        6.37099595E-18
   8.1040001        6.37099140E-18
   8.2845001        6.37098809E-18
   8.4650002        6.37098602E-18
   8.6455002        6.37098726E-18
   8.8260002        6.37099140E-18
   9.0065002        6.37099760E-18
   9.1870003        6.37100505E-18
   9.3675003        6.37101332E-18
   9.5480003        6.37101994E-18
   9.7285004        6.37102366E-18
   9.9090004        6.37102366E-18
   10.089500        6.37101994E-18
   10.270000        6.37101291E-18
   10.450500        6.37100339E-18
   10.631000        6.37099305E-18
   10.811500        6.37098520E-18
   10.992000        6.37097899E-18
   11.172500        6.37097651E-18
   11.353000        6.37097817E-18
   11.533500        6.37098313E-18
   11.714000        6.37099099E-18
   11.894500        6.37099926E-18
   12.075000        6.37100712E-18
   12.255500        6.37101208E-18
   12.436000        6.37101373E-18
   12.616500        6.37101208E-18
   12.797000        6.37100712E-18
   12.977500        6.37099967E-18
   13.158000        6.37099223E-18
   13.338500        6.37098561E-18
   13.519000        6.37098147E-18
   13.699500        6.37098106E-18
   13.880000        6.37098437E-18
   14.060500        6.37099140E-18
   14.241000        6.37100050E-18
   14.421500        6.37100918E-18
   14.602000        6.37101704E-18
   14.782500        6.37102242E-18
   14.963000        6.37102407E-18
   15.143500        6.37102076E-18
   15.324000        6.37101456E-18
   15.504500        6.37100670E-18
   15.685000        6.37099884E-18
   15.865500        6.37099223E-18
   16.046000        6.37098726E-18
   16.226500        6.37098602E-18
   16.407000        6.37098768E-18
   16.587500        6.37099264E-18
   16.768000        6.37099884E-18
   16.948500        6.37100670E-18
   17.129000        6.37101332E-18
   17.309500        6.37101622E-18
   17.490000        6.37101663E-18
   17.670500        6.37101291E-18
   17.851000        6.37100629E-18
   18.031500        6.37099802E-18
   18.212000        6.37098892E-18
   18.392500        6.37098065E-18
   18.573000        6.37097610E-18
   18.753500        6.37097486E-18
   18.934000        6.37097817E-18
   19.114500        6.37098520E-18
   19.295000        6.37099512E-18
   19.475500        6.37100670E-18
   19.656000        6.37101746E-18
   19.836500        6.37102449E-18
   20.017000        6.37102821E-18
   20.197500        6.37102697E-18
   20.378000        6.37102118E-18
   20.558500        6.37101208E-18
   20.739000        6.37100133E-18
   20.919500        6.37099057E-18
   21.100000        6.37098230E-18
   21.280500        6.37097775E-18
   21.461000        6.37097858E-18
   21.641500        6.37098396E-18
   21.822001        6.37099347E-18
   22.002501        6.37100588E-18
   22.183001        6.37101787E-18
   22.363501        6.37102821E-18
   22.544001        6.37103400E-18
   22.724501        6.37103483E-18
   22.905001        6.37102986E-18
   23.085501        6.37101911E-18
   23.266001        6.37100546E-18
   23.446501        6.37099016E-18
   23.627001        6.37097568E-18
   23.807501        6.37096617E-18
   23.988001        6.37096204E-18
   24.168501        6.37096493E-18
   24.349001        6.37097362E-18
   24.529499        6.37098602E-18
   24.709999        6.37100050E-18
   24.890499        6.37101415E-18
   25.070999        6.37102531E-18
   25.251499        6.37103069E-18
   25.431999        6.37103028E-18
   25.612499        6.37102366E-18
   25.792999        6.37101249E-18
   25.973499        6.37099760E-18
   26.153999        6.37098271E-18
   26.334499        6.37096948E-18
   26.514999        6.37096162E-18
   26.695499        6.37095997E-18
   26.875999        6.37096452E-18
   27.056499        6.37097444E-18
   27.237000        6.37098892E-18
   27.417500        6.37100463E-18
   27.598000        6.37101828E-18
   27.778500        6.37102821E-18
   27.959000        6.37103235E-18
   28.139500        6.37103152E-18
   28.320000        6.37102490E-18
   28.500500        6.37101415E-18
   28.681000        6.37100215E-18
   28.861500        6.37099099E-18
   29.042000        6.37098271E-18
   29.222500        6.37097941E-18
   29.403000        6.37098189E-18
   29.583500        6.37098975E-18
   29.764000        6.37100133E-18
   29.944500        6.37101456E-18
   30.125000        6.37102697E-18
   30.305500        6.37103607E-18
   30.486000        6.37104062E-18
   30.666500        6.37103814E-18
   30.847000        6.37102986E-18
   31.027500        6.37101622E-18
   31.208000        6.37100009E-18
   31.388500        6.37098396E-18
   31.569000        6.37097031E-18
   31.749500        6.37096121E-18
   31.930000        6.37095831E-18
   32.110500        6.37096328E-18
   32.291000        6.37097362E-18
   32.471500        6.37098850E-18
   32.652000        6.37100546E-18
   32.832500        6.37102159E-18
   33.013000        6.37103441E-18
   33.193501        6.37104103E-18
   33.374001        6.37104186E-18
   33.554501        6.37103565E-18
   33.735001        6.37102531E-18
   33.915501        6.37101208E-18
   34.096001        6.37099843E-18
   34.276501        6.37098726E-18
   34.457001        6.37098023E-18
   34.637501        6.37097899E-18
   34.818001        6.37098313E-18
   34.998501        6.37099181E-18
   35.179001        6.37100215E-18
   35.359501        6.37101291E-18
   35.540001        6.37102035E-18
   35.720501        6.37102325E-18
   35.901001        6.37102076E-18
   36.081501        6.37101332E-18
   36.262001        6.37100133E-18
   36.442501        6.37098726E-18
   36.623001        6.37097320E-18
   36.803501        6.37096204E-18
   36.984001        6.37095542E-18
   37.164501        6.37095500E-18
   37.345001        6.37096204E-18
   37.525501        6.37097403E-18
   37.706001        6.37098933E-18
   37.886501        6.37100670E-18
   38.067001        6.37102159E-18
   38.247501        6.37103235E-18
   38.428001        6.37103772E-18
   38.608501        6.37103648E-18
   38.789001        6.37102904E-18
   38.969501        6.37101746E-18
   39.150002        6.37100339E-18
   39.330502        6.37099016E-18
   39.511002        6.37098065E-18
   39.691502        6.37097568E-18
   39.872002        6.37097610E-18
   40.052502        6.37098230E-18
   40.233002        6.37099264E-18
   40.413502        6.37100422E-18
   40.594002        6.37101622E-18
   40.774502        6.37102490E-18
   40.955002        6.37102945E-18
   41.135502        6.37102821E-18
   41.316002        6.37102159E-18
   41.496498        6.37101125E-18
   41.676998        6.37099843E-18
   41.857498        6.37098602E-18
   42.037998        6.37097568E-18
   42.218498        6.37096948E-18
   42.398998        6.37096948E-18
   42.579498        6.37097403E-18
   42.759998        6.37098313E-18
   42.940498        6.37099471E-18
   43.120998        6.37100794E-18
   43.301498        6.37101952E-18
   43.481998        6.37102738E-18
   43.662498        6.37103110E-18
   43.842999        6.37102904E-18
   44.023499        6.37102159E-18
   44.203999        6.37101043E-18
   44.384499        6.37099760E-18
   44.564999        6.37098437E-18
   44.745499        6.37097444E-18
   44.925999        6.37096783E-18
   45.106499        6.37096534E-18
   45.286999        6.37096865E-18
   45.467499        6.37097486E-18
   45.647999        6.37098354E-18
   45.828499        6.37099264E-18
   46.008999        6.37100174E-18
   46.189499        6.37100794E-18
   46.369999        6.37101125E-18
   46.550499        6.37101084E-18
   46.730999        6.37100753E-18
   46.911499        6.37100215E-18
   47.091999        6.37099636E-18
   47.272499        6.37099181E-18
   47.452999        6.37098975E-18
   47.633499        6.37098975E-18
   47.813999        6.37099347E-18
   47.994499        6.37099967E-18
   48.174999        6.37100712E-18
   48.355499        6.37101539E-18
   48.535999        6.37102283E-18
   48.716499        6.37102904E-18
   48.896999        6.37103359E-18
   49.077499        6.37103524E-18
   49.257999        6.37103400E-18
   49.438499        6.37103069E-18
   49.618999        6.37102573E-18
   49.799500        6.37102035E-18
   49.980000        6.37101497E-18
   50.160500        6.37101001E-18
   50.341000        6.37100670E-18
   50.521500        6.37100505E-18
   50.702000        6.37100546E-18
   50.882500        6.37100670E-18
   51.063000        6.37100794E-18
   51.243500        6.37100877E-18
   51.424000        6.37100753E-18
   51.604500        6.37100505E-18
   51.785000        6.37100050E-18
   51.965500        6.37099512E-18
   52.146000        6.37098975E-18
   52.326500        6.37098520E-18
   52.507000        6.37098189E-18
   52.687500        6.37098147E-18
   52.868000        6.37098271E-18
   53.048500        6.37098561E-18
   53.229000        6.37099140E-18
   53.409500        6.37099843E-18
   53.590000        6.37100546E-18
   53.770500        6.37101208E-18
   53.951000        6.37101622E-18
   54.131500        6.37101787E-18
   54.312000        6.37101787E-18
   54.492500        6.37101580E-18
   54.673000        6.37101167E-18
   54.853500        6.37100836E-18
   55.034000        6.37100546E-18
   55.214500        6.37100339E-18
   55.395000        6.37100298E-18
   55.575500        6.37100381E-18
   55.756001        6.37100505E-18
   55.936501        6.37100670E-18
   56.117001        6.37100753E-18
   56.297501        6.37100753E-18
   56.478001        6.37100670E-18
   56.658501        6.37100422E-18
   56.839001        6.37099926E-18
   57.019501        6.37099347E-18
   57.200001        6.37098726E-18
   57.380501        6.37098147E-18
   57.561001        6.37097692E-18
   57.741501        6.37097403E-18
   57.922001        6.37097279E-18
   58.102501        6.37097362E-18
   58.283001        6.37097527E-18
   58.463501        6.37097899E-18
   58.644001        6.37098230E-18
   58.824501        6.37098602E-18
   59.005001        6.37098850E-18
   59.185501        6.37098975E-18
   59.366001        6.37098933E-18
   59.546501        6.37098850E-18
   59.727001        6.37098685E-18
   59.907501        6.37098602E-18
   60.088001        6.37098561E-18
   60.268501        6.37098809E-18
   60.449001        6.37099223E-18
   60.629501        6.37099802E-18
   60.810001        6.37100505E-18
   60.990501        6.37101291E-18
   61.171001        6.37102118E-18
   61.351501        6.37102780E-18
   61.532001        6.37103235E-18
   61.712502        6.37103400E-18
   61.893002        6.37103235E-18
   62.073502        6.37102738E-18
   62.254002        6.37102035E-18
   62.434502        6.37101167E-18
   62.615002        6.37100257E-18
   62.795502        6.37099512E-18
   62.976002        6.37098933E-18
   63.156502        6.37098561E-18
   63.337002        6.37098396E-18
   63.517502        6.37098396E-18
   63.698002        6.37098478E-18
   63.878502        6.37098520E-18
   64.058998        6.37098520E-18
   64.239502        6.37098437E-18
   64.419998        6.37098147E-18
   64.600502        6.37097817E-18
   64.780998        6.37097568E-18
   64.961502        6.37097444E-18
   65.141998        6.37097568E-18
   65.322502        6.37098065E-18
   65.502998        6.37098933E-18
   65.683502        6.37100133E-18
   65.863998        6.37101539E-18
   66.044502        6.37102986E-18
   66.224998        6.37104227E-18
   66.405502        6.37105220E-18
   66.585999        6.37105675E-18
   66.766502        6.37105551E-18
   66.946999        6.37104806E-18
   67.127502        6.37103607E-18
   67.307999        6.37102035E-18
   67.488503        6.37100381E-18
   67.668999        6.37098933E-18
   67.849503        6.37097817E-18
   68.029999        6.37097320E-18
   68.210503        6.37097403E-18
   68.390999        6.37098023E-18
   68.571503        6.37098933E-18
   68.751999        6.37100009E-18
   68.932503        6.37101001E-18
   69.112999        6.37101663E-18
   69.293503        6.37101787E-18
   69.473999        6.37101415E-18
   69.654503        6.37100463E-18
   69.834999        6.37099347E-18
   70.015503        6.37098189E-18
   70.195999        6.37097237E-18
   70.376503        6.37096658E-18
   70.556999        6.37096617E-18
   70.737503        6.37097279E-18
   70.917999        6.37098396E-18
   71.098503        6.37099926E-18
   71.278999        6.37101539E-18
   71.459503        6.37102904E-18
   71.639999        6.37103896E-18
   71.820503        6.37104227E-18
   72.000999        6.37103896E-18
   72.181503        6.37102986E-18
   72.362000        6.37101622E-18
   72.542503        6.37100174E-18
   72.723000        6.37098809E-18
   72.903503        6.37097899E-18
   73.084000        6.37097568E-18
   73.264503        6.37097858E-18
   73.445000        6.37098768E-18
   73.625504        6.37099967E-18
   73.806000        6.37101249E-18
   73.986504        6.37102325E-18
   74.167000        6.37102945E-18
   74.347504        6.37102986E-18
   74.528000        6.37102366E-18
   74.708504        6.37101167E-18
   74.889000        6.37099512E-18
   75.069504        6.37097734E-18
   75.250000        6.37096079E-18
   75.430496        6.37094921E-18
   75.611000        6.37094384E-18
   75.791496        6.37094673E-18
   75.972000        6.37095666E-18
   76.152496        6.37097237E-18
   76.333000        6.37099181E-18
   76.513496        6.37101125E-18
   76.694000        6.37102697E-18
   76.874496        6.37103814E-18
   77.055000        6.37104186E-18
   77.235497        6.37103855E-18
   77.416000        6.37102862E-18
   77.596497        6.37101497E-18
   77.777000        6.37100091E-18
   77.957497        6.37098809E-18
   78.138000        6.37098023E-18
   78.318497        6.37097775E-18
   78.499001        6.37098189E-18
   78.679497        6.37099181E-18
   78.860001        6.37100505E-18
   79.040497        6.37101952E-18
   79.221001        6.37103110E-18
   79.401497        6.37103772E-18
   79.582001        6.37103772E-18
   79.762497        6.37103110E-18
   79.943001        6.37101787E-18
   80.123497        6.37100050E-18
   80.304001        6.37098271E-18
   80.484497        6.37096658E-18
   80.665001        6.37095583E-18
   80.845497        6.37095170E-18
   81.026001        6.37095583E-18
   81.206497        6.37096824E-18
   81.387001        6.37098602E-18
   81.567497        6.37100670E-18
   81.748001        6.37102573E-18
   81.928497        6.37104144E-18
   82.109001        6.37104972E-18
   82.289497        6.37105054E-18
   82.470001        6.37104434E-18
   82.650497        6.37103276E-18
   82.831001        6.37101911E-18
   83.011497        6.37100588E-18
   83.192001        6.37099595E-18
   83.372498        6.37099140E-18
   83.553001        6.37099388E-18
   83.733498        6.37100215E-18
   83.914001        6.37101497E-18
   84.094498        6.37102862E-18
   84.275002        6.37104144E-18
   84.455498        6.37104972E-18
   84.636002        6.37105096E-18
   84.816498        6.37104434E-18
   84.997002        6.37103069E-18
   85.177498        6.37101167E-18
   85.358002        6.37098975E-18
   85.538498        6.37096865E-18
   85.719002        6.37095045E-18
   85.899498        6.37093929E-18
   86.080002        6.37093598E-18
   86.260498        6.37094094E-18
   86.441002        6.37095252E-18
   86.621498        6.37096783E-18
   86.802002        6.37098437E-18
   86.982498        6.37099884E-18
   87.163002        6.37100836E-18
   87.343498        6.37101167E-18
   87.524002        6.37100836E-18
   87.704498        6.37099967E-18
   87.885002        6.37098768E-18
   88.065498        6.37097527E-18
   88.246002        6.37096534E-18
   88.426498        6.37095997E-18
   88.607002        6.37096121E-18
   88.787498        6.37096907E-18
   88.968002        6.37098271E-18
   89.148499        6.37100009E-18
   89.329002        6.37101787E-18
   89.509499        6.37103235E-18
   89.690002        6.37104227E-18
   89.870499        6.37104517E-18
   90.051003        6.37104103E-18
   90.231499        6.37102986E-18
   90.412003        6.37101456E-18
   90.592499        6.37099719E-18
   90.773003        6.37098106E-18
   90.953499        6.37096865E-18
   91.134003        6.37096245E-18
   91.314499        6.37096369E-18
   91.495003        6.37097196E-18
   91.675499        6.37098520E-18
   91.856003        6.37100050E-18
   92.036499        6.37101622E-18
   92.217003        6.37102945E-18
   92.397499        6.37103855E-18
   92.578003        6.37104227E-18
   92.758499        6.37103938E-18
   92.939003        6.37103110E-18
   93.119499        6.37101994E-18
   93.300003        6.37100836E-18
   93.480499        6.37099843E-18
   93.661003        6.37099264E-18
   93.841499        6.37099140E-18
   94.022003        6.37099595E-18
   94.202499        6.37100381E-18
   94.383003        6.37101332E-18
   94.563499        6.37102201E-18
   94.744003        6.37102780E-18
   94.924500        6.37102986E-18
   95.105003        6.37102573E-18
   95.285500        6.37101663E-18
   95.466003        6.37100381E-18
   95.646500        6.37098975E-18
   95.827003        6.37097610E-18
   96.007500        6.37096700E-18
   96.188004        6.37096328E-18
   96.368500        6.37096534E-18
   96.549004        6.37097320E-18
   96.729500        6.37098561E-18
   96.910004        6.37100009E-18
   97.090500        6.37101373E-18
   97.271004        6.37102449E-18
   97.451500        6.37102986E-18
   97.632004        6.37102821E-18
   97.812500        6.37102201E-18
   97.992996        6.37101125E-18
   98.173500        6.37099802E-18
   98.353996        6.37098478E-18
   98.534500        6.37097527E-18
   98.714996        6.37097072E-18
   98.895500        6.37097196E-18
   99.075996        6.37097899E-18
   99.256500        6.37099016E-18
   99.436996        6.37100463E-18
   99.617500        6.37101911E-18
   99.797997        6.37103069E-18
   99.978500        6.37103648E-18
   100.15900        6.37103607E-18
   100.33950        6.37102862E-18
   100.52000        6.37101580E-18
   100.70050        6.37099884E-18
   100.88100        6.37098106E-18
   101.06150        6.37096493E-18
   101.24200        6.37095252E-18
   101.42250        6.37094591E-18
   101.60300        6.37094508E-18
   101.78350        6.37095004E-18
   101.96400        6.37095914E-18
   102.14450        6.37097031E-18
   102.32500        6.37098189E-18
   102.50550        6.37099057E-18
   102.68600        6.37099554E-18
   102.86650        6.37099554E-18
   103.04700        6.37099181E-18
   103.22750        6.37098520E-18
   103.40800        6.37097775E-18
   103.58850        6.37097155E-18
   103.76900        6.37096865E-18
   103.94950        6.37097072E-18
   104.13000        6.37097817E-18
   104.31050        6.37099099E-18
   104.49100        6.37100712E-18
   104.67150        6.37102449E-18
   104.85200        6.37104062E-18
   105.03250        6.37105302E-18
   105.21300        6.37106130E-18
   105.39350        6.37106419E-18
   105.57400        6.37106088E-18
   105.75450        6.37105344E-18
   105.93500        6.37104393E-18
   106.11550        6.37103359E-18
   106.29600        6.37102449E-18
   106.47650        6.37101911E-18
   106.65700        6.37101787E-18
   106.83750        6.37101994E-18
   107.01800        6.37102573E-18
   107.19850        6.37103152E-18
   107.37900        6.37103565E-18
   107.55950        6.37103689E-18
   107.74000        6.37103359E-18
   107.92050        6.37102573E-18
   108.10100        6.37101249E-18
   108.28150        6.37099719E-18
   108.46200        6.37098065E-18
   108.64250        6.37096576E-18
   108.82300        6.37095500E-18
   109.00350        6.37094921E-18
   109.18400        6.37094921E-18
   109.36450        6.37095459E-18
   109.54500        6.37096369E-18
   109.72550        6.37097527E-18
   109.90600        6.37098726E-18
   110.08650        6.37099636E-18
   110.26700        6.37100298E-18
   110.44750        6.37100422E-18
   110.62800        6.37100133E-18
   110.80850        6.37099595E-18
   110.98900        6.37098933E-18
   111.16950        6.37098396E-18
   111.35000        6.37098147E-18
   111.53050        6.37098354E-18
   111.71100        6.37099099E-18
   111.89150        6.37100257E-18
   112.07200        6.37101828E-18
   112.25250        6.37103400E-18
   112.43300        6.37104806E-18
   112.61350        6.37105799E-18
   112.79400        6.37106171E-18
   112.97450        6.37105799E-18
   113.15500        6.37104723E-18
   113.33550        6.37103069E-18
   113.51600        6.37101167E-18
   113.69650        6.37099264E-18
   113.87700        6.37097610E-18
   114.05750        6.37096493E-18
   114.23800        6.37096079E-18
   114.41850        6.37096369E-18
   114.59900        6.37097362E-18
   114.77950        6.37098809E-18
   114.96000        6.37100257E-18
   115.14050        6.37101539E-18
   115.32100        6.37102449E-18
   115.50150        6.37102656E-18
   115.68200        6.37102201E-18
   115.86250        6.37101249E-18
   116.04300        6.37099843E-18
   116.22350        6.37098354E-18
   116.40400        6.37097155E-18
   116.58450        6.37096328E-18
   116.76500        6.37096121E-18
   116.94550        6.37096576E-18
   117.12600        6.37097527E-18
   117.30650        6.37098768E-18
   117.48700        6.37100009E-18
   117.66750        6.37101084E-18
   117.84800        6.37101787E-18
   118.02850        6.37101911E-18
   118.20900        6.37101497E-18
   118.38950        6.37100712E-18
   118.57000        6.37099760E-18
   118.75050        6.37098892E-18
   118.93100        6.37098354E-18
   119.11150        6.37098271E-18
   119.29200        6.37098768E-18
   119.47250        6.37099760E-18
   119.65300        6.37101208E-18
   119.83350        6.37102697E-18
   120.01400        6.37104062E-18
   120.19450        6.37104972E-18
   120.37500        6.37105302E-18
   120.55550        6.37104889E-18
   120.73600        6.37103814E-18
   120.91650        6.37102283E-18
   121.09700        6.37100463E-18
   121.27750        6.37098685E-18
   121.45800        6.37097237E-18
   121.63850        6.37096328E-18
   121.81900        6.37096038E-18
   121.99950        6.37096576E-18
   122.18000        6.37097651E-18
   122.36050        6.37099099E-18
   122.54100        6.37100629E-18
   122.72150        6.37101870E-18
   122.90200        6.37102573E-18
   123.08250        6.37102697E-18
   123.26300        6.37101994E-18
   123.44350        6.37100629E-18
   123.62400        6.37098726E-18
   123.80450        6.37096783E-18
   123.98500        6.37094921E-18
   124.16550        6.37093515E-18
   124.34600        6.37092771E-18
   124.52650        6.37092812E-18
   124.70700        6.37093598E-18
   124.88750        6.37094880E-18
   125.06800        6.37096493E-18
   125.24850        6.37098065E-18
   125.42900        6.37099347E-18
   125.60950        6.37100091E-18
   125.79000        6.37100215E-18
   125.97050        6.37099719E-18
   126.15100        6.37098892E-18
   126.33150        6.37097775E-18
   126.51200        6.37096783E-18
   126.69250        6.37096245E-18
   126.87300        6.37096328E-18
   127.05350        6.37097155E-18
   127.23400        6.37098561E-18
   127.41450        6.37100381E-18
   127.59500        6.37102407E-18
   127.77550        6.37104227E-18
   127.95600        6.37105633E-18
   128.13651        6.37106336E-18
   128.31700        6.37106295E-18
   128.49750        6.37105468E-18
   128.67799        6.37104103E-18
   128.85851        6.37102449E-18
   129.03900        6.37100794E-18
   129.21950        6.37099512E-18
   129.39999        6.37098809E-18
   129.58051        6.37098809E-18
   129.76100        6.37099471E-18
   129.94150        6.37100670E-18
   130.12199        6.37102159E-18
   130.30251        6.37103565E-18
   130.48300        6.37104682E-18
   130.66350        6.37105137E-18
   130.84399        6.37104930E-18
   131.02451        6.37104062E-18
   131.20500        6.37102573E-18
   131.38550        6.37100918E-18
   131.56599        6.37099305E-18
   131.74651        6.37098106E-18
   131.92700        6.37097486E-18
   132.10750        6.37097486E-18
   132.28799        6.37098106E-18
   132.46851        6.37099305E-18
   132.64900        6.37100629E-18
   132.82950        6.37101911E-18
   133.00999        6.37102904E-18
   133.19051        6.37103317E-18
   133.37100        6.37103028E-18
   133.55150        6.37102118E-18
   133.73199        6.37100712E-18
   133.91251        6.37099016E-18
   134.09300        6.37097362E-18
   134.27350        6.37096038E-18
   134.45399        6.37095211E-18
   134.63451        6.37095004E-18
   134.81500        6.37095459E-18
   134.99550        6.37096369E-18
   135.17599        6.37097568E-18
   135.35651        6.37098850E-18
   135.53700        6.37099926E-18
   135.71750        6.37100588E-18
   135.89799        6.37100712E-18
   136.07851        6.37100298E-18
   136.25900        6.37099430E-18
   136.43950        6.37098313E-18
   136.62000        6.37097279E-18
   136.80051        6.37096534E-18
   136.98100        6.37096328E-18
   137.16150        6.37096617E-18
   137.34200        6.37097568E-18
   137.52251        6.37099016E-18
   137.70300        6.37100836E-18
   137.88350        6.37102862E-18
   138.06400        6.37104723E-18
   138.24451        6.37106295E-18
   138.42500        6.37107412E-18
   138.60550        6.37107867E-18
   138.78600        6.37107825E-18
   138.96651        6.37107122E-18
   139.14700        6.37106130E-18
   139.32750        6.37104889E-18
   139.50800        6.37103524E-18