  -15.00000        6.3710001E-18
  -14.81950        6.3710001E-18
  -14.63900        6.3710001E-18
  -14.45850        6.3710009E-18
  -14.27800        6.3710013E-18
  -14.09750        6.3710013E-18
  -13.91700        6.3710013E-18
  -13.73650        6.3710013E-18
  -13.55600        6.3710013E-18
  -13.37550        6.3710013E-18
  -13.19500        6.3710013E-18
  -13.01450        6.3710013E-18
  -12.83400        6.3710013E-18
  -12.65350        6.3710013E-18
  -12.47300        6.3710013E-18
  -12.29250        6.3710009E-18
  -12.11200        6.3710001E-18
  -11.93150        6.3710001E-18
  -11.75100        6.3710001E-18
  -11.57050        6.3710009E-18
  -11.39000        6.3710013E-18
  -11.20950        6.3710022E-18
  -11.02900        6.3710026E-18
  -10.84850        6.3710026E-18
  -10.66800        6.3710026E-18
  -10.48750        6.3710022E-18
  -10.30700        6.3710009E-18
  -10.12650        6.3709988E-18
  -9.946000        6.3709976E-18
  -9.765500        6.3709976E-18
  -9.585000        6.3709984E-18
  -9.404500        6.3709997E-18
  -9.224000        6.3710009E-18
  -9.043500        6.3710022E-18
  -8.863000        6.3710026E-18
  -8.682500        6.3710022E-18
  -8.502000        6.3710013E-18
  -8.321500        6.3710009E-18
  -8.141000        6.3709997E-18
  -7.960500        6.3709988E-18
  -7.780000        6.3709997E-18
  -7.599500        6.3710013E-18
  -7.419000        6.3710034E-18
  -7.238500        6.3710050E-18
  -7.058000        6.3710063E-18
  -6.877500        6.3710063E-18
  -6.697000        6.3710038E-18
  -6.516500        6.3710001E-18
  -6.336000        6.3709964E-18
  -6.155500        6.3709918E-18
  -5.975000        6.3709893E-18
  -5.794500        6.3709902E-18
  -5.614000        6.3709931E-18
  -5.433500        6.3709997E-18
  -5.253000        6.3710071E-18
  -5.072500        6.3710133E-18
  -4.892000        6.3710170E-18
  -4.711500        6.3710170E-18
  -4.531000        6.3710141E-18
  -4.350500        6.3710088E-18
  -4.170000        6.3710026E-18
  -3.989500        6.3709964E-18
  -3.809000        6.3709914E-18
  -3.628500        6.3709889E-18
  -3.448000        6.3709881E-18
  -3.267500        6.3709889E-18
  -3.087000        6.3709914E-18
  -2.906500        6.3709943E-18
  -2.726000        6.3709976E-18
  -2.545500        6.3710009E-18
  -2.365000        6.3710038E-18
  -2.184500        6.3710071E-18
  -2.004000        6.3710108E-18
  -1.823500        6.3710133E-18
  -1.643000        6.3710154E-18
  -1.462500        6.3710146E-18
  -1.282000        6.3710113E-18
  -1.101500        6.3710059E-18
 -0.9210000        6.3709984E-18
 -0.7405000        6.3709902E-18
 -0.5600000        6.3709831E-18
 -0.3795000        6.3709786E-18
 -0.1990000        6.3709782E-18
 -1.8500000E-02    6.3709815E-18
  0.1620000        6.3709889E-18
  0.3425000        6.3709988E-18
  0.5230000        6.3710100E-18
  0.7035000        6.3710204E-18
  0.8840000        6.3710266E-18
   1.064500        6.3710278E-18
   1.245000        6.3710245E-18
   1.425500        6.3710179E-18
   1.606000        6.3710088E-18
   1.786500        6.3709988E-18
   1.967000        6.3709906E-18
   2.147500        6.3709844E-18
   2.328000        6.3709806E-18
   2.508500        6.3709794E-18
   2.689000        6.3709806E-18
   2.869500        6.3709844E-18
   3.050000        6.3709906E-18
   3.230500        6.3709976E-18
   3.411000        6.3710038E-18
   3.591500        6.3710096E-18
   3.772000        6.3710141E-18
   3.952500        6.3710170E-18
   4.133000        6.3710191E-18
   4.313500        6.3710183E-18
   4.494000        6.3710154E-18
   4.674500        6.3710088E-18
   4.855000        6.3710013E-18
   5.035500        6.3709939E-18
   5.216000        6.3709877E-18
   5.396500        6.3709840E-18
   5.577000        6.3709831E-18
   5.757500        6.3709864E-18
   5.938000        6.3709914E-18
   6.118500        6.3709984E-18
   6.299000        6.3710050E-18
   6.479500        6.3710108E-18
   6.660000        6.3710141E-18
   6.840500        6.3710141E-18
   7.021000        6.3710113E-18
   7.201500        6.3710063E-18
   7.382000        6.3710013E-18
   7.562500        6.3709976E-18
   7.743000        6.3709955E-18
   7.923500        6.3709964E-18
   8.104000        6.3709984E-18
   8.284500        6.3710013E-18
   8.465000        6.3710034E-18
   8.645500        6.3710038E-18
   8.826000        6.3710034E-18
   9.006500        6.3710013E-18
   9.187000        6.3709997E-18
   9.367500        6.3709968E-18
   9.548000        6.3709955E-18
   9.728500        6.3709955E-18
   9.909000        6.3709984E-18
   10.08950        6.3710022E-18
   10.27000        6.3710071E-18
   10.45050        6.3710113E-18
   10.63100        6.3710141E-18
   10.81150        6.3710141E-18
   10.99200        6.3710113E-18
   11.17250        6.3710071E-18
   11.35300        6.3710001E-18
   11.53350        6.3709926E-18
   11.71400        6.3709852E-18
   11.89450        6.3709798E-18
   12.07500        6.3709782E-18
   12.25550        6.3709815E-18
   12.43600        6.3709881E-18
   12.61650        6.3709984E-18
   12.79700        6.3710088E-18
   12.97750        6.3710170E-18
   13.15800        6.3710208E-18
   13.33850        6.3710191E-18
   13.51900        6.3710121E-18
   13.69950        6.3710009E-18
   13.88000        6.3709881E-18
   14.06050        6.3709773E-18
   14.24100        6.3709720E-18
   14.42150        6.3709732E-18
   14.60200        6.3709819E-18
   14.78250        6.3709951E-18
   14.96300        6.3710096E-18
   15.14350        6.3710228E-18
   15.32400        6.3710311E-18
   15.50450        6.3710315E-18
   15.68500        6.3710253E-18
   15.86550        6.3710141E-18
   16.04600        6.3710001E-18
   16.22650        6.3709881E-18
   16.40700        6.3709815E-18
   16.58750        6.3709798E-18
   16.76800        6.3709852E-18
   16.94850        6.3709951E-18
   17.12900        6.3710071E-18
   17.30950        6.3710179E-18
   17.49000        6.3710232E-18
   17.67050        6.3710232E-18
   17.85100        6.3710170E-18
   18.03150        6.3710071E-18
   18.21200        6.3709955E-18
   18.39250        6.3709856E-18
   18.57300        6.3709798E-18
   18.75350        6.3709794E-18
   18.93400        6.3709844E-18
   19.11450        6.3709926E-18
   19.29500        6.3710022E-18
   19.47550        6.3710100E-18
   19.65600        6.3710146E-18
   19.83650        6.3710146E-18
   20.01700        6.3710096E-18
   20.19750        6.3710022E-18
   20.37800        6.3709943E-18
   20.55850        6.3709893E-18
   20.73900        6.3709889E-18
   20.91950        6.3709931E-18
   21.10000        6.3710026E-18
   21.28050        6.3710146E-18
   21.46100        6.3710253E-18
   21.64150        6.3710328E-18
   21.82200        6.3710340E-18
   22.00250        6.3710278E-18
   22.18300        6.3710146E-18
   22.36350        6.3709968E-18
   22.54400        6.3709782E-18
   22.72450        6.3709629E-18
   22.90500        6.3709542E-18
   23.08550        6.3709542E-18
   23.26600        6.3709629E-18
   23.44650        6.3709782E-18
   23.62700        6.3709976E-18
   23.80750        6.3710166E-18
   23.98800        6.3710311E-18
   24.16850        6.3710377E-18
   24.34900        6.3710373E-18
   24.52950        6.3710290E-18
   24.71000        6.3710166E-18
   24.89050        6.3710026E-18
   25.07100        6.3709902E-18
   25.25150        6.3709819E-18
   25.43200        6.3709794E-18
   25.61250        6.3709819E-18
   25.79300        6.3709881E-18
   25.97350        6.3709955E-18
   26.15400        6.3710038E-18
   26.33450        6.3710108E-18
   26.51500        6.3710158E-18
   26.69550        6.3710191E-18
   26.87600        6.3710195E-18
   27.05650        6.3710195E-18
   27.23700        6.3710179E-18
   27.41750        6.3710141E-18
   27.59800        6.3710088E-18
   27.77850        6.3710022E-18
   27.95900        6.3709931E-18
   28.13950        6.3709844E-18
   28.32000        6.3709769E-18
   28.50050        6.3709732E-18
   28.68100        6.3709736E-18
   28.86150        6.3709794E-18
   29.04200        6.3709902E-18
   29.22250        6.3710026E-18
   29.40300        6.3710141E-18
   29.58350        6.3710220E-18
   29.76400        6.3710253E-18
   29.94450        6.3710220E-18
   30.12500        6.3710125E-18
   30.30550        6.3710001E-18
   30.48600        6.3709864E-18
   30.66650        6.3709757E-18
   30.84700        6.3709699E-18
   31.02750        6.3709707E-18
   31.20800        6.3709782E-18
   31.38850        6.3709906E-18
   31.56900        6.3710063E-18
   31.74950        6.3710228E-18
   31.93000        6.3710361E-18
   32.11050        6.3710427E-18
   32.29100        6.3710427E-18
   32.47150        6.3710361E-18
   32.65200        6.3710241E-18
   32.83250        6.3710084E-18
   33.01300        6.3709926E-18
   33.19350        6.3709798E-18
   33.37400        6.3709724E-18
   33.55450        6.3709711E-18
   33.73500        6.3709761E-18
   33.91550        6.3709864E-18
   34.09600        6.3709984E-18
   34.27650        6.3710100E-18
   34.45700        6.3710191E-18
   34.63750        6.3710228E-18
   34.81800        6.3710204E-18
   34.99850        6.3710133E-18
   35.17900        6.3710026E-18
   35.35950        6.3709906E-18
   35.54000        6.3709798E-18
   35.72050        6.3709724E-18
   35.90100        6.3709695E-18
   36.08150        6.3709711E-18
   36.26200        6.3709773E-18
   36.44250        6.3709864E-18
   36.62300        6.3709968E-18
   36.80350        6.3710075E-18
   36.98400        6.3710154E-18
   37.16450        6.3710195E-18
   37.34500        6.3710208E-18
   37.52550        6.3710195E-18
   37.70600        6.3710166E-18
   37.88650        6.3710121E-18
   38.06700        6.3710075E-18
   38.24750        6.3710034E-18
   38.42800        6.3709988E-18
   38.60850        6.3709951E-18
   38.78900        6.3709918E-18
   38.96950        6.3709902E-18
   39.15000        6.3709889E-18
   39.33050        6.3709889E-18
   39.51100        6.3709914E-18
   39.69150        6.3709955E-18
   39.87200        6.3710034E-18
   40.05250        6.3710133E-18
   40.23300        6.3710232E-18
   40.41350        6.3710311E-18
   40.59400        6.3710336E-18
   40.77450        6.3710295E-18
   40.95500        6.3710195E-18
   41.13550        6.3710038E-18
   41.31600        6.3709856E-18
   41.49650        6.3709707E-18
   41.67700        6.3709612E-18
   41.85750        6.3709604E-18
   42.03800        6.3709682E-18
   42.21850        6.3709819E-18
   42.39900        6.3709988E-18
   42.57950        6.3710146E-18
   42.76000        6.3710241E-18
   42.94050        6.3710245E-18
   43.12100        6.3710170E-18
   43.30150        6.3710034E-18
   43.48200        6.3709881E-18
   43.66250        6.3709769E-18
   43.84300        6.3709744E-18
   44.02350        6.3709819E-18
   44.20400        6.3709964E-18
   44.38450        6.3710141E-18
   44.56500        6.3710290E-18
   44.74550        6.3710365E-18
   44.92600        6.3710340E-18
   45.10650        6.3710208E-18
   45.28700        6.3710009E-18
   45.46750        6.3709782E-18
   45.64800        6.3709600E-18
   45.82850        6.3709517E-18
   46.00900        6.3709554E-18
   46.18950        6.3709707E-18
   46.37000        6.3709943E-18
   46.55050        6.3710208E-18
   46.73100        6.3710435E-18
   46.91150        6.3710572E-18
   47.09200        6.3710584E-18
   47.27250        6.3710485E-18
   47.45300        6.3710311E-18
   47.63350        6.3710100E-18
   47.81400        6.3709918E-18
   47.99450        6.3709798E-18
   48.17500        6.3709769E-18
   48.35550        6.3709827E-18
   48.53600        6.3709939E-18
   48.71650        6.3710063E-18
   48.89700        6.3710166E-18
   49.07750        6.3710216E-18
   49.25800        6.3710195E-18
   49.43850        6.3710125E-18
   49.61900        6.3710026E-18
   49.79950        6.3709926E-18
   49.98000        6.3709856E-18
   50.16050        6.3709840E-18
   50.34100        6.3709856E-18
   50.52150        6.3709902E-18
   50.70200        6.3709955E-18
   50.88250        6.3709997E-18
   51.06300        6.3710009E-18
   51.24350        6.3709997E-18
   51.42400        6.3709964E-18
   51.60450        6.3709931E-18
   51.78500        6.3709906E-18
   51.96550        6.3709906E-18
   52.14600        6.3709931E-18
   52.32650        6.3709976E-18
   52.50700        6.3710026E-18
   52.68750        6.3710071E-18
   52.86800        6.3710100E-18
   53.04850        6.3710113E-18
   53.22900        6.3710113E-18
   53.40950        6.3710113E-18
   53.59000        6.3710113E-18
   53.77050        6.3710125E-18
   53.95100        6.3710141E-18
   54.13150        6.3710154E-18
   54.31200        6.3710154E-18
   54.49250        6.3710113E-18
   54.67300        6.3710038E-18
   54.85350        6.3709939E-18
   55.03400        6.3709827E-18
   55.21450        6.3709732E-18
   55.39500        6.3709670E-18
   55.57550        6.3709658E-18
   55.75600        6.3709695E-18
   55.93650        6.3709773E-18
   56.11700        6.3709881E-18
   56.29750        6.3710001E-18
   56.47800        6.3710121E-18
   56.65850        6.3710228E-18
   56.83900        6.3710303E-18
   57.01950        6.3710340E-18
   57.20000        6.3710348E-18
   57.38050        6.3710315E-18
   57.56100        6.3710257E-18
   57.74150        6.3710183E-18
   57.92200        6.3710096E-18
   58.10250        6.3710009E-18
   58.28300        6.3709918E-18
   58.46350        6.3709844E-18
   58.64400        6.3709786E-18
   58.82450        6.3709757E-18
   59.00500        6.3709761E-18
   59.18550        6.3709794E-18
   59.36600        6.3709852E-18
   59.54650        6.3709926E-18
   59.72700        6.3710013E-18
   59.90750        6.3710088E-18
   60.08800        6.3710146E-18
   60.26850        6.3710179E-18
   60.44900        6.3710170E-18
   60.62950        6.3710133E-18
   60.81000        6.3710059E-18
   60.99050        6.3709964E-18
   61.17100        6.3709852E-18
   61.35150        6.3709744E-18
   61.53200        6.3709662E-18
   61.71250        6.3709629E-18
   61.89300        6.3709658E-18
   62.07350        6.3709757E-18
   62.25400        6.3709918E-18
   62.43450        6.3710121E-18
   62.61500        6.3710323E-18
   62.79550        6.3710485E-18
   62.97600        6.3710572E-18
   63.15650        6.3710555E-18
   63.33700        6.3710435E-18
   63.51750        6.3710241E-18
   63.69800        6.3710001E-18
   63.87850        6.3709773E-18
   64.05900        6.3709591E-18
   64.23950        6.3709505E-18
   64.42000        6.3709517E-18
   64.60050        6.3709612E-18
   64.78100        6.3709769E-18
   64.96150        6.3709931E-18
   65.14200        6.3710071E-18
   65.32250        6.3710146E-18
   65.50300        6.3710158E-18
   65.68350        6.3710113E-18
   65.86400        6.3710050E-18
   66.04450        6.3710001E-18
   66.22500        6.3710001E-18
   66.40550        6.3710050E-18
   66.58600        6.3710146E-18
   66.76650        6.3710245E-18
   66.94700        6.3710311E-18
   67.12750        6.3710311E-18
   67.30800        6.3710228E-18
   67.48850        6.3710084E-18
   67.66900        6.3709914E-18
   67.84950        6.3709769E-18
   68.03000        6.3709699E-18
   68.21050        6.3709744E-18
   68.39100        6.3709889E-18
   68.57150        6.3710108E-18
   68.75200        6.3710328E-18
   68.93250        6.3710485E-18
   69.11300        6.3710518E-18
   69.29350        6.3710398E-18
   69.47400        6.3710141E-18
   69.65450        6.3709798E-18
   69.83500        6.3709459E-18
   70.01550        6.3709211E-18
   70.19600        6.3709120E-18
   70.37650        6.3709215E-18
   70.55700        6.3709488E-18
   70.73750        6.3709869E-18
   70.91800        6.3710290E-18
   71.09850        6.3710650E-18
   71.27900        6.3710869E-18
   71.45950        6.3710907E-18
   71.64000        6.3710762E-18
   71.82050        6.3710481E-18
   72.00100        6.3710125E-18
   72.18150        6.3709786E-18
   72.36200        6.3709525E-18
   72.54250        6.3709385E-18
   72.72300        6.3709385E-18
   72.90350        6.3709513E-18
   73.08400        6.3709720E-18
   73.26450        6.3709964E-18
   73.44500        6.3710191E-18
   73.62550        6.3710361E-18
   73.80600        6.3710452E-18
   73.98650        6.3710472E-18
   74.16700        6.3710427E-18
   74.34750        6.3710328E-18
   74.52800        6.3710191E-18
   74.70850        6.3710026E-18
   74.88900        6.3709864E-18
   75.06950        6.3709720E-18
   75.25000        6.3709616E-18
   75.43050        6.3709579E-18
   75.61100        6.3709616E-18
   75.79150        6.3709732E-18
   75.97200        6.3709906E-18
   76.15250        6.3710100E-18
   76.33300        6.3710282E-18
   76.51350        6.3710398E-18
   76.69400        6.3710427E-18
   76.87450        6.3710377E-18
   77.05500        6.3710253E-18
   77.23550        6.3710096E-18
   77.41600        6.3709943E-18
   77.59650        6.3709831E-18
   77.77700        6.3709786E-18
   77.95750        6.3709798E-18
   78.13800        6.3709852E-18
   78.31850        6.3709918E-18
   78.49900        6.3709968E-18
   78.67950        6.3709984E-18
   78.86000        6.3709951E-18
   79.04050        6.3709893E-18
   79.22100        6.3709831E-18
   79.40150        6.3709794E-18
   79.58200        6.3709815E-18
   79.76250        6.3709902E-18
   79.94300        6.3710038E-18
   80.12350        6.3710191E-18
   80.30400        6.3710315E-18
   80.48450        6.3710377E-18
   80.66500        6.3710348E-18
   80.84550        6.3710228E-18
   81.02600        6.3710050E-18
   81.20650        6.3709864E-18
   81.38700        6.3709711E-18
   81.56750        6.3709629E-18
   81.74800        6.3709637E-18
   81.92850        6.3709724E-18
   82.10900        6.3709864E-18
   82.28950        6.3710001E-18
   82.47000        6.3710108E-18
   82.65050        6.3710166E-18
   82.83100        6.3710170E-18
   83.01150        6.3710141E-18
   83.19200        6.3710100E-18
   83.37250        6.3710084E-18
   83.55300        6.3710088E-18
   83.73350        6.3710121E-18
   83.91400        6.3710146E-18
   84.09450        6.3710146E-18
   84.27500        6.3710096E-18
   84.45550        6.3710001E-18
   84.63600        6.3709881E-18
   84.81650        6.3709757E-18
   84.99700        6.3709682E-18
   85.17750        6.3709687E-18
   85.35800        6.3709794E-18
   85.53850        6.3709988E-18
   85.71900        6.3710232E-18
   85.89950        6.3710464E-18
   86.08000        6.3710638E-18
   86.26050        6.3710679E-18
   86.44100        6.3710584E-18
   86.62150        6.3710361E-18
   86.80200        6.3710046E-18
   86.98250        6.3709720E-18
   87.16300        6.3709443E-18
   87.34350        6.3709277E-18
   87.52400        6.3709248E-18
   87.70450        6.3709343E-18
   87.88500        6.3709538E-18
   88.06550        6.3709782E-18
   88.24600        6.3710013E-18
   88.42650        6.3710191E-18
   88.60700        6.3710278E-18
   88.78750        6.3710270E-18
   88.96800        6.3710191E-18
   89.14850        6.3710071E-18
   89.32900        6.3709943E-18
   89.50950        6.3709856E-18
   89.69000        6.3709827E-18
   89.87050        6.3709856E-18
   90.05100        6.3709943E-18
   90.23150        6.3710071E-18
   90.41200        6.3710195E-18
   90.59250        6.3710295E-18
   90.77300        6.3710361E-18
   90.95350        6.3710373E-18
   91.13400        6.3710328E-18
   91.31450        6.3710245E-18
   91.49500        6.3710141E-18
   91.67550        6.3710038E-18
   91.85600        6.3709964E-18
   92.03650        6.3709926E-18
   92.21700        6.3709918E-18
   92.39750        6.3709955E-18
   92.57800        6.3710022E-18
   92.75850        6.3710108E-18
   92.93900        6.3710195E-18
   93.11950        6.3710278E-18
   93.30000        6.3710336E-18
   93.48050        6.3710352E-18
   93.66100        6.3710336E-18
   93.84150        6.3710266E-18
   94.02200        6.3710154E-18
   94.20250        6.3710009E-18
   94.38300        6.3709844E-18
   94.56350        6.3709695E-18
   94.74400        6.3709579E-18
   94.92450        6.3709542E-18
   95.10500        6.3709587E-18
   95.28550        6.3709699E-18
   95.46600        6.3709869E-18
   95.64650        6.3710063E-18
   95.82700        6.3710232E-18
   96.00750        6.3710348E-18
   96.18800        6.3710385E-18
   96.36850        6.3710328E-18
   96.54900        6.3710204E-18
   96.72950        6.3710034E-18
   96.91000        6.3709864E-18
   97.09050        6.3709744E-18
   97.27100        6.3709699E-18
   97.45150        6.3709749E-18
   97.63200        6.3709877E-18
   97.81250        6.3710038E-18
   97.99300        6.3710183E-18
   98.17350        6.3710270E-18
   98.35400        6.3710270E-18
   98.53450        6.3710191E-18
   98.71500        6.3710038E-18
   98.89550        6.3709856E-18
   99.07600        6.3709687E-18
   99.25650        6.3709579E-18
   99.43700        6.3709575E-18
   99.61750        6.3709670E-18
   99.79800        6.3709856E-18
   99.97850        6.3710075E-18
   100.1590        6.3710282E-18
   100.3395        6.3710414E-18
   100.5200        6.3710435E-18
   100.7005        6.3710323E-18
   100.8810        6.3710096E-18
   101.0615        6.3709806E-18
   101.2420        6.3709505E-18
   101.4225        6.3709261E-18
   101.6030        6.3709120E-18
   101.7835        6.3709120E-18
   101.9640        6.3709261E-18
   102.1445        6.3709517E-18
   102.3250        6.3709852E-18
   102.5055        6.3710195E-18
   102.6860        6.3710485E-18
   102.8665        6.3710679E-18
   103.0470        6.3710762E-18
   103.2275        6.3710725E-18
   103.4080        6.3710584E-18
   103.5885        6.3710390E-18
   103.7690        6.3710179E-18
   103.9495        6.3709988E-18
   104.1300        6.3709852E-18
   104.3105        6.3709786E-18
   104.4910        6.3709798E-18
   104.6715        6.3709889E-18
   104.8520        6.3710034E-18
   105.0325        6.3710204E-18
   105.2130        6.3710377E-18
   105.3935        6.3710530E-18
   105.5740        6.3710621E-18
   105.7545        6.3710638E-18
   105.9350        6.3710555E-18
   106.1155        6.3710385E-18
   106.2960        6.3710146E-18
   106.4765        6.3709881E-18
   106.6570        6.3709637E-18
   106.8375        6.3709455E-18
   107.0180        6.3709360E-18
   107.1985        6.3709372E-18
   107.3790        6.3709476E-18
   107.5595        6.3709624E-18
   107.7400        6.3709794E-18
   107.9205        6.3709939E-18
   108.1010        6.3710034E-18
   108.2815        6.3710050E-18
   108.4620        6.3710009E-18
   108.6425        6.3709914E-18
   108.8230        6.3709815E-18
   109.0035        6.3709736E-18
   109.1840        6.3709720E-18
   109.3645        6.3709769E-18
   109.5450        6.3709881E-18
   109.7255        6.3710026E-18
   109.9060        6.3710166E-18
   110.0865        6.3710266E-18
   110.2670        6.3710323E-18
   110.4475        6.3710328E-18
   110.6280        6.3710282E-18
   110.8085        6.3710208E-18
   110.9890        6.3710108E-18
   111.1695        6.3709988E-18
   111.3500        6.3709869E-18
   111.5305        6.3709757E-18
   111.7110        6.3709670E-18
   111.8915        6.3709612E-18
   112.0720        6.3709591E-18
   112.2525        6.3709616E-18
   112.4330        6.3709695E-18
   112.6135        6.3709806E-18
   112.7940        6.3709951E-18
   112.9745        6.3710108E-18
   113.1550        6.3710241E-18
   113.3355        6.3710323E-18
   113.5160        6.3710340E-18
   113.6965        6.3710295E-18
   113.8770        6.3710220E-18
   114.0575        6.3710146E-18
   114.2380        6.3710108E-18
   114.4185        6.3710141E-18
   114.5990        6.3710232E-18
   114.7795        6.3710377E-18
   114.9600        6.3710534E-18
   115.1405        6.3710654E-18
   115.3210        6.3710687E-18
   115.5015        6.3710617E-18
   115.6820        6.3710448E-18
   115.8625        6.3710220E-18
   116.0430        6.3709984E-18
   116.2235        6.3709786E-18
   116.4040        6.3709682E-18
   116.5845        6.3709687E-18
   116.7650        6.3709782E-18
   116.9455        6.3709918E-18
   117.1260        6.3710046E-18
   117.3065        6.3710108E-18
   117.4870        6.3710084E-18
   117.6675        6.3709968E-18
   117.8480        6.3709794E-18
   118.0285        6.3709612E-18
   118.2090        6.3709480E-18
   118.3895        6.3709434E-18
   118.5700        6.3709513E-18
   118.7505        6.3709687E-18
   118.9310        6.3709926E-18
   119.1115        6.3710154E-18
   119.2920        6.3710311E-18
   119.4725        6.3710352E-18
   119.6530        6.3710270E-18
   119.8335        6.3710100E-18
   120.0140        6.3709893E-18
   120.1945        6.3709724E-18
   120.3750        6.3709649E-18
   120.5555        6.3709682E-18
   120.7360        6.3709798E-18
   120.9165        6.3709976E-18
   121.0970        6.3710141E-18
   121.2775        6.3710241E-18
   121.4580        6.3710245E-18
   121.6385        6.3710166E-18
   121.8190        6.3710034E-18
   121.9995        6.3709914E-18
   122.1800        6.3709869E-18
   122.3605        6.3709939E-18
   122.5410        6.3710125E-18
   122.7215        6.3710390E-18
   122.9020        6.3710663E-18
   123.0825        6.3710845E-18
   123.2630        6.3710861E-18
   123.4435        6.3710700E-18
   123.6240        6.3710373E-18
   123.8045        6.3709955E-18
   123.9850        6.3709550E-18
   124.1655        6.3709261E-18
   124.3460        6.3709174E-18
   124.5265        6.3709310E-18
   124.7070        6.3709649E-18
   124.8875        6.3710096E-18
   125.0680        6.3710543E-18
   125.2485        6.3710861E-18
   125.4290        6.3710977E-18
   125.6095        6.3710849E-18
   125.7900        6.3710510E-18
   125.9705        6.3710046E-18
   126.1510        6.3709567E-18
   126.3315        6.3709174E-18
   126.5120        6.3708950E-18
   126.6925        6.3708938E-18
   126.8730        6.3709116E-18
   127.0535        6.3709430E-18
   127.2340        6.3709786E-18
   127.4145        6.3710108E-18
   127.5950        6.3710315E-18
   127.7755        6.3710365E-18
   127.9560        6.3710278E-18
   128.1365        6.3710088E-18
   128.3170        6.3709869E-18
   128.4975        6.3709687E-18
   128.6780        6.3709587E-18
   128.8585        6.3709587E-18
   129.0390        6.3709695E-18
   129.2195        6.3709877E-18
   129.4000        6.3710096E-18
   129.5805        6.3710303E-18
   129.7610        6.3710460E-18
   129.9415        6.3710534E-18
   130.1220        6.3710522E-18
   130.3025        6.3710435E-18
   130.4830        6.3710290E-18
   130.6635        6.3710121E-18
   130.8440        6.3709951E-18
   131.0245        6.3709827E-18
   131.2050        6.3709749E-18
   131.3855        6.3709724E-18
   131.5660        6.3709749E-18
   131.7465        6.3709815E-18
   131.9270        6.3709893E-18
   132.1075        6.3709988E-18
   132.2880        6.3710071E-18
   132.4685        6.3710133E-18
   132.6490        6.3710170E-18
   132.8295        6.3710166E-18
   133.0100        6.3710125E-18
   133.1905        6.3710063E-18
   133.3710        6.3710009E-18
   133.5515        6.3709968E-18
   133.7320        6.3709968E-18
   133.9125        6.3710009E-18
   134.0930        6.3710088E-18
   134.2735        6.3710179E-18
   134.4540        6.3710241E-18
   134.6345        6.3710253E-18
   134.8150        6.3710191E-18
   134.9955        6.3710050E-18
   135.1760        6.3709864E-18
   135.3565        6.3709658E-18
   135.5370        6.3709467E-18
   135.7175        6.3709356E-18
   135.8980        6.3709347E-18
   136.0785        6.3709455E-18
   136.2590        6.3709658E-18
   136.4395        6.3709918E-18
   136.6200        6.3710191E-18
   136.8005        6.3710414E-18
   136.9810        6.3710555E-18
   137.1615        6.3710592E-18
   137.3420        6.3710510E-18
   137.5225        6.3710340E-18
   137.7030        6.3710108E-18
   137.8835        6.3709864E-18
   138.0640        6.3709645E-18
   138.2445        6.3709492E-18
   138.4250        6.3709443E-18
   138.6055        6.3709492E-18
   138.7860        6.3709645E-18
   138.9665        6.3709864E-18
   139.1470        6.3710121E-18
   139.3275        6.3710365E-18
   139.5080        6.3710567E-18
   139.6885        6.3710679E-18
   139.8690        6.3710679E-18
   140.0495        6.3710547E-18
   140.2300        6.3710315E-18
   140.4105        6.3710022E-18
   140.5910        6.3709724E-18
   140.7715        6.3709492E-18
   140.9520        6.3709393E-18
   141.1325        6.3709459E-18
   141.3130        6.3709687E-18
   141.4935        6.3710026E-18
   141.6740        6.3710402E-18
   141.8545        6.3710729E-18
   142.0350        6.3710919E-18
   142.2155        6.3710919E-18
   142.3960        6.3710716E-18
   142.5765        6.3710348E-18
   142.7570        6.3709889E-18
   142.9375        6.3709455E-18
   143.1180        6.3709161E-18
   143.2985        6.3709070E-18
   143.4790        6.3709223E-18
   143.6595        6.3709567E-18
   143.8400        6.3710026E-18
   144.0205        6.3710497E-18
   144.2010        6.3710861E-18
   144.3815        6.3711051E-18
   144.5620        6.3711027E-18
   144.7425        6.3710799E-18
   144.9230        6.3710435E-18
   145.1035        6.3710013E-18
   145.2840        6.3709629E-18
   145.4645        6.3709360E-18
   145.6450        6.3709252E-18
   145.8255        6.3709310E-18
   146.0060        6.3709492E-18
   146.1865        6.3709744E-18
   146.3670        6.3709997E-18
   146.5475        6.3710204E-18
   146.7280        6.3710323E-18
   146.9085        6.3710340E-18
   147.0890        6.3710257E-18
   147.2695        6.3710100E-18
   147.4500        6.3709893E-18
   147.6305        6.3709674E-18
   147.8110        6.3709467E-18
   147.9915        6.3709310E-18
   148.1720        6.3709223E-18
   148.3525        6.3709236E-18
   148.5330        6.3709368E-18
   148.7135        6.3709612E-18
   148.8940        6.3709955E-18