  -15.00000        5.0383029E-18
  -14.81950        5.0383029E-18
  -14.63900        5.0383029E-18
  -14.45850        5.0383033E-18
  -14.27800        5.0383042E-18
  -14.09750        5.0383042E-18
  -13.91700        5.0383038E-18
  -13.73650        5.0383033E-18
  -13.55600        5.0383025E-18
  -13.37550        5.0383017E-18
  -13.19500        5.0383013E-18
  -13.01450        5.0383017E-18
  -12.83400        5.0383025E-18
  -12.65350        5.0383038E-18
  -12.47300        5.0383054E-18
  -12.29250        5.0383054E-18
  -12.11200        5.0383050E-18
  -11.93150        5.0383029E-18
  -11.75100        5.0383017E-18
  -11.57050        5.0383017E-18
  -11.39000        5.0383025E-18
  -11.20950        5.0383029E-18
  -11.02900        5.0383038E-18
  -10.84850        5.0383050E-18
  -10.66800        5.0383062E-18
  -10.48750        5.0383062E-18
  -10.30700        5.0383054E-18
  -10.12650        5.0383042E-18
  -9.946000        5.0383029E-18
  -9.765500        5.0383017E-18
  -9.585000        5.0383017E-18
  -9.404500        5.0383025E-18
  -9.224000        5.0383033E-18
  -9.043500        5.0383042E-18
  -8.863000        5.0383050E-18
  -8.682500        5.0383050E-18
  -8.502000        5.0383046E-18
  -8.321500        5.0383029E-18
  -8.141000        5.0383021E-18
  -7.960500        5.0383013E-18
  -7.780000        5.0383013E-18
  -7.599500        5.0383029E-18
  -7.419000        5.0383046E-18
  -7.238500        5.0383062E-18
  -7.058000        5.0383062E-18
  -6.877500        5.0383062E-18
  -6.697000        5.0383054E-18
  -6.516500        5.0383038E-18
  -6.336000        5.0383029E-18
  -6.155500        5.0383042E-18
  -5.975000        5.0383058E-18
  -5.794500        5.0383079E-18
  -5.614000        5.0383087E-18
  -5.433500        5.0383071E-18
  -5.253000        5.0383046E-18
  -5.072500        5.0383013E-18
  -4.892000        5.0382984E-18
  -4.711500        5.0382971E-18
  -4.531000        5.0382988E-18
  -4.350500        5.0383013E-18
  -4.170000        5.0383046E-18
  -3.989500        5.0383062E-18
  -3.809000        5.0383054E-18
  -3.628500        5.0383029E-18
  -3.448000        5.0383000E-18
  -3.267500        5.0382980E-18
  -3.087000        5.0382988E-18
  -2.906500        5.0383009E-18
  -2.726000        5.0383042E-18
  -2.545500        5.0383075E-18
  -2.365000        5.0383083E-18
  -2.184500        5.0383071E-18
  -2.004000        5.0383042E-18
  -1.823500        5.0383009E-18
  -1.643000        5.0382980E-18
  -1.462500        5.0382976E-18
  -1.282000        5.0383000E-18
  -1.101500        5.0383033E-18
 -0.9210000        5.0383067E-18
 -0.7405000        5.0383083E-18
 -0.5600000        5.0383079E-18
 -0.3795000        5.0383050E-18
 -0.1990000        5.0383021E-18
 -1.8500000E-02    5.0383000E-18
  0.1620000        5.0383009E-18
  0.3425000        5.0383038E-18
  0.5230000        5.0383079E-18
  0.7035000        5.0383120E-18
  0.8840000        5.0383133E-18
   1.064500        5.0383108E-18
   1.245000        5.0383062E-18
   1.425500        5.0383004E-18
   1.606000        5.0382967E-18
   1.786500        5.0382963E-18
   1.967000        5.0382984E-18
   2.147500        5.0383021E-18
   2.328000        5.0383054E-18
   2.508500        5.0383058E-18
   2.689000        5.0383033E-18
   2.869500        5.0382996E-18
   3.050000        5.0382967E-18
   3.230500        5.0382963E-18
   3.411000        5.0383000E-18
   3.591500        5.0383062E-18
   3.772000        5.0383112E-18
   3.952500        5.0383149E-18
   4.133000        5.0383141E-18
   4.313500        5.0383087E-18
   4.494000        5.0383017E-18
   4.674500        5.0382959E-18
   4.855000        5.0382926E-18
   5.035500        5.0382934E-18
   5.216000        5.0382971E-18
   5.396500        5.0383017E-18
   5.577000        5.0383042E-18
   5.757500        5.0383046E-18
   5.938000        5.0383021E-18
   6.118500        5.0382984E-18
   6.299000        5.0382955E-18
   6.479500        5.0382955E-18
   6.660000        5.0382992E-18
   6.840500        5.0383054E-18
   7.021000        5.0383116E-18
   7.201500        5.0383162E-18
   7.382000        5.0383153E-18
   7.562500        5.0383104E-18
   7.743000        5.0383029E-18
   7.923500        5.0382963E-18
   8.104000        5.0382947E-18
   8.284500        5.0382976E-18
   8.465000        5.0383033E-18
   8.645500        5.0383083E-18
   8.826000        5.0383104E-18
   9.006500        5.0383083E-18
   9.187000        5.0383038E-18
   9.367500        5.0382984E-18
   9.548000        5.0382967E-18
   9.728500        5.0382992E-18
   9.909000        5.0383050E-18
   10.08950        5.0383120E-18
   10.27000        5.0383174E-18
   10.45050        5.0383182E-18
   10.63100        5.0383141E-18
   10.81150        5.0383062E-18
   10.99200        5.0382984E-18
   11.17250        5.0382942E-18
   11.35300        5.0382947E-18
   11.53350        5.0383000E-18
   11.71400        5.0383079E-18
   11.89450        5.0383133E-18
   12.07500        5.0383137E-18
   12.25550        5.0383083E-18
   12.43600        5.0383013E-18
   12.61650        5.0382942E-18
   12.79700        5.0382922E-18
   12.97750        5.0382947E-18
   13.15800        5.0383009E-18
   13.33850        5.0383071E-18
   13.51900        5.0383100E-18
   13.69950        5.0383079E-18
   13.88000        5.0383017E-18
   14.06050        5.0382942E-18
   14.24100        5.0382885E-18
   14.42150        5.0382876E-18
   14.60200        5.0382918E-18
   14.78250        5.0382988E-18
   14.96300        5.0383046E-18
   15.14350        5.0383079E-18
   15.32400        5.0383062E-18
   15.50450        5.0383025E-18
   15.68500        5.0382984E-18
   15.86550        5.0382959E-18
   16.04600        5.0382980E-18
   16.22650        5.0383038E-18
   16.40700        5.0383100E-18
   16.58750        5.0383153E-18
   16.76800        5.0383170E-18
   16.94850        5.0383137E-18
   17.12900        5.0383067E-18
   17.30950        5.0383000E-18
   17.49000        5.0382963E-18
   17.67050        5.0382959E-18
   17.85100        5.0382988E-18
   18.03150        5.0383033E-18
   18.21200        5.0383062E-18
   18.39250        5.0383067E-18
   18.57300        5.0383021E-18
   18.75350        5.0382942E-18
   18.93400        5.0382872E-18
   19.11450        5.0382843E-18
   19.29500        5.0382864E-18
   19.47550        5.0382930E-18
   19.65600        5.0383033E-18
   19.83650        5.0383124E-18
   20.01700        5.0383174E-18
   20.19750        5.0383174E-18
   20.37800        5.0383137E-18
   20.55850        5.0383091E-18
   20.73900        5.0383058E-18
   20.91950        5.0383058E-18
   21.10000        5.0383091E-18
   21.28050        5.0383133E-18
   21.46100        5.0383149E-18
   21.64150        5.0383124E-18
   21.82200        5.0383058E-18
   22.00250        5.0382980E-18
   22.18300        5.0382922E-18
   22.36350        5.0382909E-18
   22.54400        5.0382955E-18
   22.72450        5.0383050E-18
   22.90500        5.0383137E-18
   23.08550        5.0383195E-18
   23.26600        5.0383195E-18
   23.44650        5.0383137E-18
   23.62700        5.0383054E-18
   23.80750        5.0382976E-18
   23.98800        5.0382942E-18
   24.16850        5.0382959E-18
   24.34900        5.0383013E-18
   24.52950        5.0383071E-18
   24.71000        5.0383112E-18
   24.89050        5.0383104E-18
   25.07100        5.0383054E-18
   25.25150        5.0382992E-18
   25.43200        5.0382951E-18
   25.61250        5.0382955E-18
   25.79300        5.0383004E-18
   25.97350        5.0383079E-18
   26.15400        5.0383145E-18
   26.33450        5.0383166E-18
   26.51500        5.0383133E-18
   26.69550        5.0383058E-18
   26.87600        5.0382980E-18
   27.05650        5.0382934E-18
   27.23700        5.0382947E-18
   27.41750        5.0383004E-18
   27.59800        5.0383095E-18
   27.77850        5.0383158E-18
   27.95900        5.0383178E-18
   28.13950        5.0383133E-18
   28.32000        5.0383050E-18
   28.50050        5.0382967E-18
   28.68100        5.0382922E-18
   28.86150        5.0382934E-18
   29.04200        5.0382992E-18
   29.22250        5.0383062E-18
   29.40300        5.0383108E-18
   29.58350        5.0383112E-18
   29.76400        5.0383083E-18
   29.94450        5.0383033E-18
   30.12500        5.0382992E-18
   30.30550        5.0382984E-18
   30.48600        5.0383029E-18
   30.66650        5.0383100E-18
   30.84700        5.0383166E-18
   31.02750        5.0383191E-18
   31.20800        5.0383153E-18
   31.38850        5.0383075E-18
   31.56900        5.0382984E-18
   31.74950        5.0382909E-18
   31.93000        5.0382889E-18
   32.11050        5.0382914E-18
   32.29100        5.0382976E-18
   32.47150        5.0383042E-18
   32.65200        5.0383075E-18
   32.83250        5.0383062E-18
   33.01300        5.0383017E-18
   33.19350        5.0382967E-18
   33.37400        5.0382934E-18
   33.55450        5.0382934E-18
   33.73500        5.0382971E-18
   33.91550        5.0383025E-18
   34.09600        5.0383075E-18
   34.27650        5.0383083E-18
   34.45700        5.0383046E-18
   34.63750        5.0382976E-18
   34.81800        5.0382914E-18
   34.99850        5.0382889E-18
   35.17900        5.0382914E-18
   35.35950        5.0382988E-18
   35.54000        5.0383079E-18
   35.72050        5.0383149E-18
   35.90100        5.0383174E-18
   36.08150        5.0383145E-18
   36.26200        5.0383083E-18
   36.44250        5.0383017E-18
   36.62300        5.0382976E-18
   36.80350        5.0382980E-18
   36.98400        5.0383009E-18
   37.16450        5.0383050E-18
   37.34500        5.0383071E-18
   37.52550        5.0383054E-18
   37.70600        5.0383004E-18
   37.88650        5.0382942E-18
   38.06700        5.0382893E-18
   38.24750        5.0382876E-18
   38.42800        5.0382901E-18
   38.60850        5.0382951E-18
   38.78900        5.0382996E-18
   38.96950        5.0383025E-18
   39.15000        5.0383013E-18
   39.33050        5.0382971E-18
   39.51100        5.0382930E-18
   39.69150        5.0382922E-18
   39.87200        5.0382955E-18
   40.05250        5.0383033E-18
   40.23300        5.0383137E-18
   40.41350        5.0383220E-18
   40.59400        5.0383249E-18
   40.77450        5.0383224E-18
   40.95500        5.0383153E-18
   41.13550        5.0383067E-18
   41.31600        5.0383004E-18
   41.49650        5.0382992E-18
   41.67700        5.0383025E-18
   41.85750        5.0383079E-18
   42.03800        5.0383120E-18
   42.21850        5.0383124E-18
   42.39900        5.0383104E-18
   42.57950        5.0383062E-18
   42.76000        5.0383033E-18
   42.94050        5.0383033E-18
   43.12100        5.0383075E-18
   43.30150        5.0383129E-18
   43.48200        5.0383174E-18
   43.66250        5.0383182E-18
   43.84300        5.0383145E-18
   44.02350        5.0383054E-18
   44.20400        5.0382947E-18
   44.38450        5.0382839E-18
   44.56500        5.0382777E-18
   44.74550        5.0382760E-18
   44.92600        5.0382794E-18
   45.10650        5.0382847E-18
   45.28700        5.0382885E-18
   45.46750        5.0382901E-18
   45.64800        5.0382893E-18
   45.82850        5.0382885E-18
   46.00900        5.0382897E-18
   46.18950        5.0382947E-18
   46.37000        5.0383046E-18
   46.55050        5.0383158E-18
   46.73100        5.0383257E-18
   46.91150        5.0383311E-18
   47.09200        5.0383311E-18
   47.27250        5.0383273E-18
   47.45300        5.0383207E-18
   47.63350        5.0383162E-18
   47.81400        5.0383149E-18
   47.99450        5.0383178E-18
   48.17500        5.0383228E-18
   48.35550        5.0383257E-18
   48.53600        5.0383244E-18
   48.71650        5.0383182E-18
   48.89700        5.0383087E-18
   49.07750        5.0382984E-18
   49.25800        5.0382926E-18
   49.43850        5.0382918E-18
   49.61900        5.0382955E-18
   49.79950        5.0383029E-18
   49.98000        5.0383091E-18
   50.16050        5.0383116E-18
   50.34100        5.0383091E-18
   50.52150        5.0383029E-18
   50.70200        5.0382963E-18
   50.88250        5.0382930E-18
   51.06300        5.0382955E-18
   51.24350        5.0383009E-18
   51.42400        5.0383075E-18
   51.60450        5.0383100E-18
   51.78500        5.0383075E-18
   51.96550        5.0382988E-18
   52.14600        5.0382880E-18
   52.32650        5.0382789E-18
   52.50700        5.0382756E-18
   52.68750        5.0382798E-18
   52.86800        5.0382885E-18
   53.04850        5.0382992E-18
   53.22900        5.0383071E-18
   53.40950        5.0383095E-18
   53.59000        5.0383054E-18
   53.77050        5.0382992E-18
   53.95100        5.0382942E-18
   54.13150        5.0382942E-18
   54.31200        5.0382984E-18
   54.49250        5.0383058E-18
   54.67300        5.0383120E-18
   54.85350        5.0383129E-18
   55.03400        5.0383071E-18
   55.21450        5.0382971E-18
   55.39500        5.0382880E-18
   55.57550        5.0382847E-18
   55.75600        5.0382880E-18
   55.93650        5.0382988E-18
   56.11700        5.0383124E-18
   56.29750        5.0383240E-18
   56.47800        5.0383282E-18
   56.65850        5.0383244E-18
   56.83900        5.0383145E-18
   57.01950        5.0383042E-18
   57.20000        5.0382980E-18
   57.38050        5.0382984E-18
   57.56100        5.0383038E-18
   57.74150        5.0383108E-18
   57.92200        5.0383153E-18
   58.10250        5.0383133E-18
   58.28300        5.0383050E-18
   58.46350        5.0382934E-18
   58.64400        5.0382827E-18
   58.82450        5.0382777E-18
   59.00500        5.0382806E-18
   59.18550        5.0382893E-18
   59.36600        5.0382992E-18
   59.54650        5.0383042E-18
   59.72700        5.0383021E-18
   59.90750        5.0382942E-18
   60.08800        5.0382847E-18
   60.26850        5.0382789E-18
   60.44900        5.0382806E-18
   60.62950        5.0382897E-18
   60.81000        5.0383038E-18
   60.99050        5.0383182E-18
   61.17100        5.0383282E-18
   61.35150        5.0383306E-18
   61.53200        5.0383273E-18
   61.71250        5.0383211E-18
   61.89300        5.0383174E-18
   62.07350        5.0383182E-18
   62.25400        5.0383220E-18
   62.43450        5.0383265E-18
   62.61500        5.0383273E-18
   62.79550        5.0383211E-18
   62.97600        5.0383079E-18
   63.15650        5.0382914E-18
   63.33700        5.0382765E-18
   63.51750        5.0382690E-18
   63.69800        5.0382703E-18
   63.87850        5.0382794E-18
   64.05900        5.0382918E-18
   64.23950        5.0383033E-18
   64.42000        5.0383095E-18
   64.60050        5.0383100E-18
   64.78100        5.0383071E-18
   64.96150        5.0383042E-18
   65.14200        5.0383062E-18
   65.32250        5.0383133E-18
   65.50300        5.0383249E-18
   65.68350        5.0383364E-18
   65.86400        5.0383439E-18
   66.04450        5.0383439E-18
   66.22500        5.0383360E-18
   66.40550        5.0383236E-18
   66.58600        5.0383108E-18
   66.76650        5.0383013E-18
   66.94700        5.0382967E-18
   67.12750        5.0382942E-18
   67.30800        5.0382922E-18
   67.48850        5.0382851E-18
   67.66900        5.0382736E-18
   67.84950        5.0382587E-18
   68.03000        5.0382463E-18
   68.21050        5.0382405E-18
   68.39100        5.0382438E-18
   68.57150        5.0382558E-18
   68.75200        5.0382727E-18
   68.93250        5.0382901E-18
   69.11300        5.0383029E-18
   69.29350        5.0383095E-18
   69.47400        5.0383108E-18
   69.65450        5.0383112E-18
   69.83500        5.0383133E-18
   70.01550        5.0383174E-18
   70.19600        5.0383240E-18
   70.37650        5.0383294E-18
   70.55700        5.0383294E-18
   70.73750        5.0383232E-18
   70.91800        5.0383112E-18
   71.09850        5.0382980E-18
   71.27900        5.0382880E-18
   71.45950        5.0382843E-18
   71.64000        5.0382893E-18
   71.82050        5.0383009E-18
   72.00100        5.0383137E-18
   72.18150        5.0383240E-18
   72.36200        5.0383294E-18
   72.54250        5.0383286E-18
   72.72300        5.0383244E-18
   72.90350        5.0383207E-18
   73.08400        5.0383191E-18
   73.26450        5.0383224E-18
   73.44500        5.0383277E-18
   73.62550        5.0383327E-18
   73.80600        5.0383335E-18
   73.98650        5.0383282E-18
   74.16700        5.0383178E-18
   74.34750        5.0383046E-18
   74.52800        5.0382930E-18
   74.70850        5.0382851E-18
   74.88900        5.0382831E-18
   75.06950        5.0382839E-18
   75.25000        5.0382860E-18
   75.43050        5.0382851E-18
   75.61100        5.0382802E-18
   75.79150        5.0382719E-18
   75.97200        5.0382649E-18
   76.15250        5.0382628E-18
   76.33300        5.0382678E-18
   76.51350        5.0382789E-18
   76.69400        5.0382938E-18
   76.87450        5.0383062E-18
   77.05500        5.0383129E-18
   77.23550        5.0383141E-18
   77.41600        5.0383108E-18
   77.59650        5.0383079E-18
   77.77700        5.0383083E-18
   77.95750        5.0383133E-18
   78.13800        5.0383207E-18
   78.31850        5.0383282E-18
   78.49900        5.0383323E-18
   78.67950        5.0383294E-18
   78.86000        5.0383224E-18
   79.04050        5.0383133E-18
   79.22100        5.0383058E-18
   79.40150        5.0383025E-18
   79.58200        5.0383058E-18
   79.76250        5.0383116E-18
   79.94300        5.0383174E-18
   80.12350        5.0383211E-18
   80.30400        5.0383199E-18
   80.48450        5.0383137E-18
   80.66500        5.0383062E-18
   80.84550        5.0383009E-18
   81.02600        5.0383000E-18
   81.20650        5.0383046E-18
   81.38700        5.0383137E-18
   81.56750        5.0383220E-18
   81.74800        5.0383265E-18
   81.92850        5.0383265E-18
   82.10900        5.0383220E-18
   82.28950        5.0383158E-18
   82.47000        5.0383108E-18
   82.65050        5.0383100E-18
   82.83100        5.0383124E-18
   83.01150        5.0383158E-18
   83.19200        5.0383166E-18
   83.37250        5.0383124E-18
   83.55300        5.0383029E-18
   83.73350        5.0382918E-18
   83.91400        5.0382831E-18
   84.09450        5.0382781E-18
   84.27500        5.0382810E-18
   84.45550        5.0382889E-18
   84.63600        5.0382984E-18
   84.81650        5.0383050E-18
   84.99700        5.0383062E-18
   85.17750        5.0383021E-18
   85.35800        5.0382959E-18
   85.53850        5.0382905E-18
   85.71900        5.0382901E-18
   85.89950        5.0382951E-18
   86.08000        5.0383033E-18
   86.26050        5.0383095E-18
   86.44100        5.0383124E-18
   86.62150        5.0383083E-18
   86.80200        5.0383004E-18
   86.98250        5.0382905E-18
   87.16300        5.0382847E-18
   87.34350        5.0382847E-18
   87.52400        5.0382901E-18
   87.70450        5.0382992E-18
   87.88500        5.0383083E-18
   88.06550        5.0383124E-18
   88.24600        5.0383112E-18
   88.42650        5.0383062E-18
   88.60700        5.0383017E-18
   88.78750        5.0383004E-18
   88.96800        5.0383046E-18
   89.14850        5.0383129E-18
   89.32900        5.0383211E-18
   89.50950        5.0383249E-18
   89.69000        5.0383224E-18
   89.87050        5.0383141E-18
   90.05100        5.0383033E-18
   90.23150        5.0382951E-18
   90.41200        5.0382901E-18
   90.59250        5.0382918E-18
   90.77300        5.0382967E-18
   90.95350        5.0383017E-18
   91.13400        5.0383038E-18
   91.31450        5.0383000E-18
   91.49500        5.0382918E-18
   91.67550        5.0382831E-18
   91.85600        5.0382765E-18
   92.03650        5.0382736E-18
   92.21700        5.0382765E-18
   92.39750        5.0382831E-18
   92.57800        5.0382885E-18
   92.75850        5.0382893E-18
   92.93900        5.0382843E-18
   93.11950        5.0382752E-18
   93.30000        5.0382653E-18
   93.48050        5.0382595E-18
   93.66100        5.0382595E-18
   93.84150        5.0382665E-18
   94.02200        5.0382773E-18
   94.20250        5.0382872E-18
   94.38300        5.0382934E-18
   94.56350        5.0382959E-18
   94.74400        5.0382967E-18
   94.92450        5.0382971E-18
   95.10500        5.0383017E-18
   95.28550        5.0383112E-18
   95.46600        5.0383240E-18
   95.64650        5.0383377E-18
   95.82700        5.0383480E-18
   96.00750        5.0383526E-18
   96.18800        5.0383521E-18
   96.36850        5.0383484E-18
   96.54900        5.0383435E-18
   96.72950        5.0383402E-18
   96.91000        5.0383397E-18
   97.09050        5.0383418E-18
   97.27100        5.0383439E-18
   97.45150        5.0383430E-18
   97.63200        5.0383373E-18
   97.81250        5.0383273E-18
   97.99300        5.0383166E-18
   98.17350        5.0383083E-18
   98.35400        5.0383050E-18
   98.53450        5.0383067E-18
   98.71500        5.0383108E-18
   98.89550        5.0383153E-18
   99.07600        5.0383170E-18
   99.25650        5.0383137E-18
   99.43700        5.0383054E-18
   99.61750        5.0382963E-18
   99.79800        5.0382880E-18
   99.97850        5.0382827E-18
   100.1590        5.0382831E-18
   100.3395        5.0382868E-18
   100.5200        5.0382905E-18
   100.7005        5.0382905E-18
   100.8810        5.0382868E-18
   101.0615        5.0382798E-18
   101.2420        5.0382711E-18
   101.4225        5.0382653E-18
   101.6030        5.0382632E-18
   101.7835        5.0382661E-18
   101.9640        5.0382715E-18
   102.1445        5.0382773E-18
   102.3250        5.0382818E-18
   102.5055        5.0382831E-18
   102.6860        5.0382818E-18
   102.8665        5.0382810E-18
   103.0470        5.0382823E-18
   103.2275        5.0382868E-18
   103.4080        5.0382942E-18
   103.5885        5.0383033E-18
   103.7690        5.0383116E-18
   103.9495        5.0383153E-18
   104.1300        5.0383145E-18
   104.3105        5.0383100E-18
   104.4910        5.0383042E-18
   104.6715        5.0383000E-18
   104.8520        5.0382980E-18
   105.0325        5.0382996E-18
   105.2130        5.0383021E-18
   105.3935        5.0383050E-18
   105.5740        5.0383046E-18
   105.7545        5.0383021E-18
   105.9350        5.0382988E-18
   106.1155        5.0382976E-18
   106.2960        5.0382992E-18
   106.4765        5.0383029E-18
   106.6570        5.0383095E-18
   106.8375        5.0383158E-18
   107.0180        5.0383199E-18
   107.1985        5.0383211E-18
   107.3790        5.0383182E-18
   107.5595        5.0383141E-18
   107.7400        5.0383104E-18
   107.9205        5.0383095E-18
   108.1010        5.0383112E-18
   108.2815        5.0383149E-18
   108.4620        5.0383174E-18
   108.6425        5.0383166E-18
   108.8230        5.0383120E-18
   109.0035        5.0383033E-18
   109.1840        5.0382926E-18
   109.3645        5.0382831E-18
   109.5450        5.0382773E-18
   109.7255        5.0382756E-18
   109.9060        5.0382773E-18
   110.0865        5.0382785E-18
   110.2670        5.0382794E-18
   110.4475        5.0382777E-18
   110.6280        5.0382760E-18
   110.8085        5.0382769E-18
   110.9890        5.0382827E-18
   111.1695        5.0382938E-18
   111.3500        5.0383071E-18
   111.5305        5.0383199E-18
   111.7110        5.0383298E-18
   111.8915        5.0383340E-18
   112.0720        5.0383340E-18
   112.2525        5.0383306E-18
   112.4330        5.0383273E-18
   112.6135        5.0383249E-18
   112.7940        5.0383240E-18
   112.9745        5.0383249E-18
   113.1550        5.0383228E-18
   113.3355        5.0383170E-18
   113.5160        5.0383075E-18
   113.6965        5.0382947E-18
   113.8770        5.0382810E-18
   114.0575        5.0382707E-18
   114.2380        5.0382645E-18
   114.4185        5.0382632E-18
   114.5990        5.0382657E-18
   114.7795        5.0382694E-18
   114.9600        5.0382727E-18
   115.1405        5.0382744E-18
   115.3210        5.0382752E-18
   115.5015        5.0382785E-18
   115.6820        5.0382860E-18
   115.8625        5.0382988E-18
   116.0430        5.0383145E-18
   116.2235        5.0383298E-18
   116.4040        5.0383406E-18
   116.5845        5.0383451E-18
   116.7650        5.0383435E-18
   116.9455        5.0383389E-18
   117.1260        5.0383352E-18
   117.3065        5.0383340E-18
   117.4870        5.0383360E-18
   117.6675        5.0383410E-18
   117.8480        5.0383464E-18
   118.0285        5.0383497E-18
   118.2090        5.0383493E-18
   118.3895        5.0383451E-18
   118.5700        5.0383393E-18
   118.7505        5.0383340E-18
   118.9310        5.0383311E-18
   119.1115        5.0383298E-18
   119.2920        5.0383286E-18
   119.4725        5.0383240E-18
   119.6530        5.0383145E-18
   119.8335        5.0383004E-18
   120.0140        5.0382823E-18
   120.1945        5.0382649E-18
   120.3750        5.0382508E-18
   120.5555        5.0382425E-18
   120.7360        5.0382401E-18
   120.9165        5.0382405E-18
   121.0970        5.0382421E-18
   121.2775        5.0382434E-18
   121.4580        5.0382434E-18
   121.6385        5.0382442E-18
   121.8190        5.0382483E-18
   121.9995        5.0382566E-18
   122.1800        5.0382694E-18
   122.3605        5.0382843E-18
   122.5410        5.0382992E-18
   122.7215        5.0383112E-18
   122.9020        5.0383199E-18
   123.0825        5.0383257E-18
   123.2630        5.0383306E-18
   123.4435        5.0383356E-18
   123.6240        5.0383430E-18
   123.8045        5.0383517E-18
   123.9850        5.0383608E-18
   124.1655        5.0383666E-18
   124.3460        5.0383675E-18
   124.5265        5.0383625E-18
   124.7070        5.0383530E-18
   124.8875        5.0383406E-18
   125.0680        5.0383294E-18
   125.2485        5.0383207E-18
   125.4290        5.0383162E-18
   125.6095        5.0383129E-18
   125.7900        5.0383104E-18
   125.9705        5.0383062E-18
   126.1510        5.0382984E-18
   126.3315        5.0382893E-18
   126.5120        5.0382810E-18
   126.6925        5.0382744E-18
   126.8730        5.0382698E-18
   127.0535        5.0382682E-18
   127.2340        5.0382674E-18
   127.4145        5.0382645E-18
   127.5950        5.0382599E-18
   127.7755        5.0382550E-18
   127.9560        5.0382504E-18
   128.1365        5.0382492E-18
   128.3170        5.0382533E-18
   128.4975        5.0382628E-18
   128.6780        5.0382760E-18
   128.8585        5.0382909E-18
   129.0390        5.0383029E-18
   129.2195        5.0383100E-18
   129.4000        5.0383129E-18
   129.5805        5.0383137E-18
   129.7610        5.0383145E-18
   129.9415        5.0383178E-18
   130.1220        5.0383244E-18
   130.3025        5.0383327E-18
   130.4830        5.0383406E-18
   130.6635        5.0383459E-18
   130.8440        5.0383468E-18
   131.0245        5.0383447E-18
   131.2050        5.0383426E-18
   131.3855        5.0383426E-18
   131.5660        5.0383447E-18
   131.7465        5.0383480E-18
   131.9270        5.0383505E-18
   132.1075        5.0383488E-18
   132.2880        5.0383426E-18
   132.4685        5.0383327E-18
   132.6490        5.0383195E-18
   132.8295        5.0383071E-18
   133.0100        5.0382967E-18
   133.1905        5.0382893E-18
   133.3710        5.0382843E-18
   133.5515        5.0382802E-18
   133.7320        5.0382748E-18
   133.9125        5.0382686E-18
   134.0930        5.0382620E-18
   134.2735        5.0382562E-18
   134.4540        5.0382537E-18
   134.6345        5.0382554E-18
   134.8150        5.0382612E-18
   134.9955        5.0382686E-18
   135.1760        5.0382760E-18
   135.3565        5.0382806E-18
   135.5370        5.0382818E-18
   135.7175        5.0382814E-18
   135.8980        5.0382818E-18
   136.0785        5.0382847E-18
   136.2590        5.0382918E-18
   136.4395        5.0383000E-18
   136.6200        5.0383071E-18
   136.8005        5.0383100E-18
   136.9810        5.0383079E-18
   137.1615        5.0383017E-18
   137.3420        5.0382947E-18
   137.5225        5.0382905E-18
   137.7030        5.0382893E-18
   137.8835        5.0382918E-18
   138.0640        5.0382967E-18
   138.2445        5.0383021E-18
   138.4250        5.0383054E-18
   138.6055        5.0383067E-18
   138.7860        5.0383067E-18
   138.9665        5.0383067E-18
   139.1470        5.0383083E-18
   139.3275        5.0383124E-18
   139.5080        5.0383186E-18
   139.6885        5.0383232E-18
   139.8690        5.0383236E-18
   140.0495        5.0383199E-18
   140.2300        5.0383120E-18
   140.4105        5.0383025E-18
   140.5910        5.0382951E-18
   140.7715        5.0382922E-18
   140.9520        5.0382938E-18
   141.1325        5.0382996E-18
   141.3130        5.0383067E-18
   141.4935        5.0383116E-18
   141.6740        5.0383133E-18
   141.8545        5.0383112E-18
   142.0350        5.0383079E-18
   142.2155        5.0383062E-18
   142.3960        5.0383083E-18
   142.5765        5.0383145E-18
   142.7570        5.0383236E-18
   142.9375        5.0383319E-18
   143.1180        5.0383364E-18
   143.2985        5.0383360E-18
   143.4790        5.0383327E-18
   143.6595        5.0383277E-18
   143.8400        5.0383236E-18
   144.0205        5.0383220E-18
   144.2010        5.0383215E-18
   144.3815        5.0383203E-18
   144.5620        5.0383153E-18
   144.7425        5.0383058E-18
   144.9230        5.0382918E-18
   145.1035        5.0382760E-18
   145.2840        5.0382620E-18
   145.4645        5.0382529E-18
   145.6450        5.0382500E-18
   145.8255        5.0382525E-18
   146.0060        5.0382595E-18
   146.1865        5.0382669E-18
   146.3670        5.0382719E-18
   146.5475        5.0382744E-18
   146.7280        5.0382756E-18
   146.9085        5.0382789E-18
   147.0890        5.0382864E-18
   147.2695        5.0382984E-18
   147.4500        5.0383145E-18
   147.6305        5.0383302E-18
   147.8110        5.0383430E-18
   147.9915        5.0383493E-18
   148.1720        5.0383505E-18
   148.3525        5.0383484E-18
   148.5330        5.0383468E-18
   148.7135        5.0383480E-18
   148.8940        5.0383517E-18