 -15.00000000   -0.6371000085E-17
 -14.81949997   -0.6371000085E-17
 -14.63899994   -0.6371000085E-17
 -14.45849991   -0.6371000085E-17
 -14.27799988   -0.6371000913E-17
 -14.09749985   -0.6371001326E-17
 -13.91699982   -0.6371001326E-17
 -13.73649979   -0.6371001326E-17
 -13.55599976   -0.6371001326E-17
 -13.37549973   -0.6371000913E-17
 -13.19499969   -0.6371000913E-17
 -13.01449966   -0.6371000913E-17
 -12.83399963   -0.6371000913E-17
 -12.65349960   -0.6371000913E-17
 -12.47299957   -0.6371001326E-17
 -12.29249954   -0.6371002153E-17
 -12.11200047   -0.6371002153E-17
 -11.93150043   -0.6371002153E-17
 -11.75100040   -0.6371001326E-17
 -11.57050037   -0.6371000913E-17
 -11.39000034   -0.6370999672E-17
 -11.20950031   -0.6370998845E-17
 -11.02900028   -0.6370998431E-17
 -10.84850025   -0.6370998431E-17
 -10.66800022   -0.6370998845E-17
 -10.48750019   -0.6370999672E-17
 -10.30700016   -0.6371000913E-17
 -10.12650013   -0.6371001326E-17
 -9.946000099   -0.6371002153E-17
 -9.765500069   -0.6371002153E-17
 -9.585000038   -0.6371001326E-17
 -9.404500008   -0.6371000913E-17
 -9.223999977   -0.6371000085E-17
 -9.043499947   -0.6370999672E-17
 -8.862999916   -0.6370999672E-17
 -8.682499886   -0.6371000913E-17
 -8.501999855   -0.6371002153E-17
 -8.321499825   -0.6371003394E-17
 -8.140999794   -0.6371003808E-17
 -7.960499763   -0.6371003394E-17
 -7.780000210   -0.6371003394E-17
 -7.599500179   -0.6371002567E-17
 -7.419000149   -0.6371002153E-17
 -7.238500118   -0.6371002153E-17
 -7.058000088   -0.6371002153E-17
 -6.877500057   -0.6371002153E-17
 -6.697000027   -0.6371002153E-17
 -6.516499996   -0.6371002153E-17
 -6.335999966   -0.6371000085E-17
 -6.155499935   -0.6370997604E-17
 -5.974999905   -0.6370995122E-17
 -5.794499874   -0.6370992641E-17
 -5.613999844   -0.6370991814E-17
 -5.433499813   -0.6370992641E-17
 -5.252999783   -0.6370995536E-17
 -5.072500229   -0.6371000085E-17
 -4.892000198   -0.6371004635E-17
 -4.711500168   -0.6371007530E-17
 -4.531000137   -0.6371009598E-17
 -4.350500107   -0.6371009598E-17
 -4.170000076   -0.6371007116E-17
 -3.989500046   -0.6371003808E-17
 -3.809000015   -0.6370999672E-17
 -3.628499985   -0.6370995122E-17
 -3.447999954   -0.6370991814E-17
 -3.267499924   -0.6370990159E-17
 -3.086999893   -0.6370990159E-17
 -2.906500101   -0.6370991814E-17
 -2.726000071   -0.6370995122E-17
 -2.545500040   -0.6371000085E-17
 -2.365000010   -0.6371005048E-17
 -2.184499979   -0.6371008771E-17
 -2.003999949   -0.6371012080E-17
 -1.823500037   -0.6371013320E-17
 -1.643000007   -0.6371012493E-17
 -1.462499976   -0.6371010839E-17
 -1.281999946   -0.6371007116E-17
 -1.101500034   -0.6371002153E-17
 -0.9210000038   -0.6370995536E-17
 -0.7404999733   -0.6370989332E-17
 -0.5600000024   -0.6370984369E-17
 -0.3795000017   -0.6370980647E-17
 -0.1990000010   -0.6370979406E-17
 -0.1850000024E-01   -0.6370980647E-17
 0.1620000005   -0.6370985610E-17
 0.3425000012   -0.6370993054E-17
 0.5230000019   -0.6371003394E-17
 0.7034999728   -0.6371013320E-17
 0.8840000033   -0.6371022006E-17
 1.064499974   -0.6371028210E-17
 1.245000005   -0.6371030277E-17
 1.425500035   -0.6371026969E-17
 1.605999947   -0.6371019111E-17
 1.786499977   -0.6371007530E-17
 1.967000008   -0.6370995122E-17
 2.147500038   -0.6370983955E-17
 2.328000069   -0.6370976097E-17
 2.508500099   -0.6370973616E-17
 2.688999891   -0.6370976097E-17
 2.869499922   -0.6370982715E-17
 3.049999952   -0.6370991400E-17
 3.230499983   -0.6371001326E-17
 3.411000013   -0.6371010012E-17
 3.591500044   -0.6371016629E-17
 3.772000074   -0.6371020351E-17
 3.952500105   -0.6371020765E-17
 4.132999897   -0.6371018283E-17
 4.313499928   -0.6371013320E-17
 4.493999958   -0.6371007530E-17
 4.674499989   -0.6371002153E-17
 4.855000019   -0.6370996363E-17
 5.035500050   -0.6370991814E-17
 5.216000080   -0.6370988918E-17
 5.396500111   -0.6370986851E-17
 5.577000141   -0.6370986851E-17
 5.757500172   -0.6370988091E-17
 5.938000202   -0.6370990573E-17
 6.118500233   -0.6370994295E-17
 6.298999786   -0.6370998845E-17
 6.479499817   -0.6371003394E-17
 6.659999847   -0.6371006289E-17
 6.840499878   -0.6371008357E-17
 7.020999908   -0.6371007530E-17
 7.201499939   -0.6371005876E-17
 7.381999969   -0.6371002567E-17
 7.562500000   -0.6370999672E-17
 7.743000031   -0.6370998431E-17
 7.923500061   -0.6370998431E-17
 8.104000092   -0.6370999672E-17
 8.284500122   -0.6371000913E-17
 8.465000153   -0.6371002153E-17
 8.645500183   -0.6371002153E-17
 8.826000214   -0.6371001326E-17
 9.006500244   -0.6370999672E-17
 9.187000275   -0.6370997604E-17
 9.367500305   -0.6370996777E-17
 9.548000336   -0.6370996777E-17
 9.728500366   -0.6370998431E-17
 9.909000397   -0.6371001326E-17
 10.08950043   -0.6371004635E-17
 10.27000046   -0.6371007530E-17
 10.45049953   -0.6371009598E-17
 10.63099957   -0.6371010012E-17
 10.81149960   -0.6371008357E-17
 10.99199963   -0.6371005876E-17
 11.17249966   -0.6371002153E-17
 11.35299969   -0.6370998845E-17
 11.53349972   -0.6370996777E-17
 11.71399975   -0.6370996363E-17
 11.89449978   -0.6370997604E-17
 12.07499981   -0.6371000085E-17
 12.25549984   -0.6371002567E-17
 12.43599987   -0.6371005876E-17
 12.61649990   -0.6371007116E-17
 12.79699993   -0.6371006289E-17
 12.97749996   -0.6371004635E-17
 13.15799999   -0.6371001326E-17
 13.33850002   -0.6370998431E-17
 13.51900005   -0.6370995122E-17
 13.69950008   -0.6370993882E-17
 13.88000011   -0.6370993882E-17
 14.06050014   -0.6370995122E-17
 14.24100018   -0.6370997604E-17
 14.42150021   -0.6371001326E-17
 14.60200024   -0.6371004635E-17
 14.78250027   -0.6371007530E-17
 14.96300030   -0.6371010012E-17
 15.14350033   -0.6371011252E-17
 15.32400036   -0.6371011252E-17
 15.50450039   -0.6371009598E-17
 15.68500042   -0.6371005048E-17
 15.86550045   -0.6370999672E-17
 16.04599953   -0.6370992641E-17
 16.22649956   -0.6370985610E-17
 16.40699959   -0.6370979406E-17
 16.58749962   -0.6370974856E-17
 16.76799965   -0.6370974443E-17
 16.94849968   -0.6370978579E-17
 17.12899971   -0.6370988918E-17
 17.30949974   -0.6371002567E-17
 17.48999977   -0.6371017870E-17
 17.67049980   -0.6371031105E-17
 17.85099983   -0.6371038963E-17
 18.03149986   -0.6371039790E-17
 18.21199989   -0.6371031518E-17
 18.39249992   -0.6371016629E-17
 18.57299995   -0.6370997604E-17
 18.75349998   -0.6370978579E-17
 18.93400002   -0.6370963689E-17
 19.11450005   -0.6370956658E-17
 19.29500008   -0.6370959140E-17
 19.47550011   -0.6370970720E-17
 19.65600014   -0.6370988091E-17
 19.83650017   -0.6371007116E-17
 20.01700020   -0.6371023246E-17
 20.19750023   -0.6371034827E-17
 20.37800026   -0.6371038549E-17
 20.55850029   -0.6371035241E-17
 20.73900032   -0.6371026969E-17
 20.91950035   -0.6371015388E-17
 21.10000038   -0.6371002567E-17
 21.28050041   -0.6370991814E-17
 21.46100044   -0.6370983955E-17
 21.64150047   -0.6370979406E-17
 21.82200050   -0.6370978579E-17
 22.00250053   -0.6370980647E-17
 22.18300056   -0.6370985196E-17
 22.36350060   -0.6370990573E-17
 22.54400063   -0.6370997604E-17
 22.72450066   -0.6371006289E-17
 22.90500069   -0.6371016629E-17
 23.08550072   -0.6371026555E-17
 23.26600075   -0.6371033586E-17
 23.44650078   -0.6371035241E-17
 23.62700081   -0.6371030277E-17
 23.80750084   -0.6371019111E-17
 23.98800087   -0.6371002567E-17
 24.16850090   -0.6370983955E-17
 24.34900093   -0.6370967412E-17
 24.52949905   -0.6370957486E-17
 24.70999908   -0.6370956245E-17
 24.89049911   -0.6370964930E-17
 25.07099915   -0.6370981474E-17
 25.25149918   -0.6371002153E-17
 25.43199921   -0.6371021592E-17
 25.61249924   -0.6371034827E-17
 25.79299927   -0.6371038963E-17
 25.97349930   -0.6371032759E-17
 26.15399933   -0.6371019111E-17
 26.33449936   -0.6371001326E-17
 26.51499939   -0.6370985196E-17
 26.69549942   -0.6370974856E-17
 26.87599945   -0.6370973202E-17
 27.05649948   -0.6370979819E-17
 27.23699951   -0.6370993054E-17
 27.41749954   -0.6371008771E-17
 27.59799957   -0.6371022006E-17
 27.77849960   -0.6371029037E-17
 27.95899963   -0.6371026969E-17
 28.13949966   -0.6371018283E-17
 28.31999969   -0.6371004635E-17
 28.50049973   -0.6370990573E-17
 28.68099976   -0.6370979819E-17
 28.86149979   -0.6370975684E-17
 29.04199982   -0.6370978579E-17
 29.22249985   -0.6370988091E-17
 29.40299988   -0.6371000913E-17
 29.58349991   -0.6371013320E-17
 29.76399994   -0.6371022006E-17
 29.94449997   -0.6371024487E-17
 30.12500000   -0.6371020351E-17
 30.30550003   -0.6371010839E-17
 30.48600006   -0.6370996777E-17
 30.66650009   -0.6370983955E-17
 30.84700012   -0.6370974443E-17
 31.02750015   -0.6370970720E-17
 31.20800018   -0.6370973202E-17
 31.38850021   -0.6370980647E-17
 31.56900024   -0.6370990573E-17
 31.74950027   -0.6371001326E-17
 31.93000031   -0.6371010839E-17
 32.11050034   -0.6371016629E-17
 32.29100037   -0.6371017043E-17
 32.47150040   -0.6371012493E-17
 32.65200043   -0.6371003808E-17
 32.83250046   -0.6370992641E-17
 33.01300049   -0.6370981474E-17
 33.19350052   -0.6370972375E-17
 33.37400055   -0.6370968239E-17
 33.55450058   -0.6370969893E-17
 33.73500061   -0.6370978165E-17
 33.91550064   -0.6370991814E-17
 34.09600067   -0.6371008357E-17
 34.27650070   -0.6371024074E-17
 34.45700073   -0.6371036068E-17
 34.63750076   -0.6371041444E-17
 34.81800079   -0.6371040204E-17
 34.99850082   -0.6371032759E-17
 35.17900085   -0.6371020351E-17
 35.35950089   -0.6371005048E-17
 35.54000092   -0.6370990159E-17
 35.72050095   -0.6370977338E-17
 35.90100098   -0.6370969893E-17
 36.08150101   -0.6370967412E-17
 36.26200104   -0.6370969893E-17
 36.44250107   -0.6370975684E-17
 36.62300110   -0.6370982715E-17
 36.80350113   -0.6370990573E-17
 36.98400116   -0.6370998431E-17
 37.16450119   -0.6371004635E-17
 37.34500122   -0.6371010012E-17
 37.52550125   -0.6371015388E-17
 37.70600128   -0.6371019111E-17
 37.88650131   -0.6371022006E-17
 38.06700134   -0.6371023246E-17
 38.24750137   -0.6371020765E-17
 38.42800140   -0.6371014147E-17
 38.60850143   -0.6371003394E-17
 38.78900146   -0.6370989332E-17
 38.96950150   -0.6370975684E-17
 39.15000153   -0.6370964930E-17
 39.33050156   -0.6370960381E-17
 39.51100159   -0.6370964930E-17
 39.69150162   -0.6370976924E-17
 39.87200165   -0.6370993882E-17
 40.05250168   -0.6371012493E-17
 40.23300171   -0.6371029450E-17
 40.41350174   -0.6371040204E-17
 40.59400177   -0.6371043926E-17
 40.77450180   -0.6371039790E-17
 40.95500183   -0.6371028210E-17
 41.13550186   -0.6371013320E-17
 41.31600189   -0.6370998845E-17
 41.49649811   -0.6370986851E-17
 41.67699814   -0.6370980647E-17
 41.85749817   -0.6370978579E-17
 42.03799820   -0.6370980647E-17
 42.21849823   -0.6370983128E-17
 42.39899826   -0.6370984369E-17
 42.57949829   -0.6370984369E-17
 42.75999832   -0.6370983128E-17
 42.94049835   -0.6370981887E-17
 43.12099838   -0.6370981887E-17
 43.30149841   -0.6370985196E-17
 43.48199844   -0.6370991814E-17
 43.66249847   -0.6371003394E-17
 43.84299850   -0.6371017043E-17
 44.02349854   -0.6371030277E-17
 44.20399857   -0.6371039790E-17
 44.38449860   -0.6371041031E-17
 44.56499863   -0.6371034000E-17
 44.74549866   -0.6371019524E-17
 44.92599869   -0.6371002153E-17
 45.10649872   -0.6370985610E-17
 45.28699875   -0.6370973616E-17
 45.46749878   -0.6370969480E-17
 45.64799881   -0.6370973616E-17
 45.82849884   -0.6370985196E-17
 46.00899887   -0.6371001326E-17
 46.18949890   -0.6371018283E-17
 46.36999893   -0.6371031518E-17
 46.55049896   -0.6371038549E-17
 46.73099899   -0.6371038549E-17
 46.91149902   -0.6371032345E-17
 47.09199905   -0.6371022006E-17
 47.27249908   -0.6371011252E-17
 47.45299911   -0.6371002153E-17
 47.63349915   -0.6370995122E-17
 47.81399918   -0.6370990159E-17
 47.99449921   -0.6370986437E-17
 48.17499924   -0.6370983955E-17
 48.35549927   -0.6370981474E-17
 48.53599930   -0.6370978579E-17
 48.71649933   -0.6370977338E-17
 48.89699936   -0.6370977338E-17
 49.07749939   -0.6370979819E-17
 49.25799942   -0.6370986437E-17
 49.43849945   -0.6370996363E-17
 49.61899948   -0.6371009598E-17
 49.79949951   -0.6371022833E-17
 49.97999954   -0.6371032345E-17
 50.16049957   -0.6371035241E-17
 50.34099960   -0.6371029450E-17
 50.52149963   -0.6371016629E-17
 50.70199966   -0.6370998431E-17
 50.88249969   -0.6370980647E-17
 51.06299973   -0.6370967412E-17
 51.24349976   -0.6370962449E-17
 51.42399979   -0.6370966171E-17
 51.60449982   -0.6370977338E-17
 51.78499985   -0.6370993054E-17
 51.96549988   -0.6371008771E-17
 52.14599991   -0.6371020765E-17
 52.32649994   -0.6371026555E-17
 52.50699997   -0.6371024487E-17
 52.68750000   -0.6371017043E-17
 52.86800003   -0.6371007116E-17
 53.04850006   -0.6370997604E-17
 53.22900009   -0.6370991400E-17
 53.40950012   -0.6370988918E-17
 53.59000015   -0.6370988918E-17
 53.77050018   -0.6370989332E-17
 53.95100021   -0.6370989332E-17
 54.13150024   -0.6370988091E-17
 54.31200027   -0.6370986851E-17
 54.49250031   -0.6370986851E-17
 54.67300034   -0.6370989332E-17
 54.85350037   -0.6370994295E-17
 55.03400040   -0.6371002153E-17
 55.21450043   -0.6371010839E-17
 55.39500046   -0.6371019111E-17
 55.57550049   -0.6371024487E-17
 55.75600052   -0.6371025314E-17
 55.93650055   -0.6371020765E-17
 56.11700058   -0.6371011252E-17
 56.29750061   -0.6371000913E-17
 56.47800064   -0.6370991400E-17
 56.65850067   -0.6370986851E-17
 56.83900070   -0.6370988918E-17
 57.01950073   -0.6370996363E-17
 57.20000076   -0.6371006289E-17
 57.38050079   -0.6371015802E-17
 57.56100082   -0.6371020765E-17
 57.74150085   -0.6371019111E-17
 57.92200089   -0.6371009598E-17
 58.10250092   -0.6370993882E-17
 58.28300095   -0.6370976097E-17
 58.46350098   -0.6370961208E-17
 58.64400101   -0.6370953763E-17
 58.82450104   -0.6370955418E-17
 59.00500107   -0.6370967412E-17
 59.18550110   -0.6370985196E-17
 59.36600113   -0.6371004635E-17
 59.54650116   -0.6371020351E-17
 59.72700119   -0.6371029037E-17
 59.90750122   -0.6371030277E-17
 60.08800125   -0.6371024487E-17
 60.26850128   -0.6371017043E-17
 60.44900131   -0.6371011252E-17
 60.62950134   -0.6371009598E-17
 60.81000137   -0.6371013320E-17
 60.99050140   -0.6371019524E-17
 61.17100143   -0.6371025728E-17
 61.35150146   -0.6371028210E-17
 61.53200150   -0.6371025314E-17
 61.71250153   -0.6371014561E-17
 61.89300156   -0.6370999672E-17
 62.07350159   -0.6370983128E-17
 62.25400162   -0.6370970720E-17
 62.43450165   -0.6370966171E-17
 62.61500168   -0.6370971961E-17
 62.79550171   -0.6370987678E-17
 62.97600174   -0.6371008357E-17
 63.15650177   -0.6371027796E-17
 63.33700180   -0.6371041444E-17
 63.51750183   -0.6371044753E-17
 63.69800186   -0.6371036481E-17
 63.87850189   -0.6371019524E-17
 64.05899811   -0.6370998845E-17
 64.23950195   -0.6370979819E-17
 64.41999817   -0.6370968653E-17
 64.60050201   -0.6370966998E-17
 64.78099823   -0.6370974443E-17
 64.96150208   -0.6370986851E-17
 65.14199829   -0.6371000085E-17
 65.32250214   -0.6371008357E-17
 65.50299835   -0.6371007530E-17
 65.68350220   -0.6370999672E-17
 65.86399841   -0.6370986851E-17
 66.04450226   -0.6370975684E-17
 66.22499847   -0.6370970720E-17
 66.40550232   -0.6370975684E-17
 66.58599854   -0.6370990573E-17
 66.76650238   -0.6371010012E-17
 66.94699860   -0.6371027796E-17
 67.12750244   -0.6371036481E-17
 67.30799866   -0.6371031518E-17
 67.48850250   -0.6371011252E-17
 67.66899872   -0.6370980647E-17
 67.84950256   -0.6370947559E-17
 68.02999878   -0.6370921503E-17
 68.21050262   -0.6370912818E-17
 68.39099884   -0.6370926466E-17
 68.57150269   -0.6370961208E-17
 68.75199890   -0.6371009598E-17
 68.93250275   -0.6371059229E-17
 69.11299896   -0.6371097693E-17
 69.29350281   -0.6371114650E-17
 69.47399902   -0.6371105551E-17
 69.65450287   -0.6371072877E-17
 69.83499908   -0.6371025314E-17
 70.01550293   -0.6370974856E-17
 70.19599915   -0.6370934325E-17
 70.37650299   -0.6370913231E-17
 70.55699921   -0.6370917781E-17
 70.73750305   -0.6370944251E-17
 70.91799927   -0.6370985610E-17
 71.09850311   -0.6371029450E-17
 71.27899933   -0.6371062951E-17
 71.45950317   -0.6371077427E-17
 71.63999939   -0.6371069155E-17
 71.82050323   -0.6371042685E-17
 72.00099945   -0.6371006289E-17
 72.18150330   -0.6370971134E-17
 72.36199951   -0.6370945905E-17
 72.54250336   -0.6370938047E-17
 72.72299957   -0.6370946732E-17
 72.90350342   -0.6370968653E-17
 73.08399963   -0.6370996777E-17
 73.26450348   -0.6371022006E-17
 73.44499969   -0.6371038549E-17
 73.62550354   -0.6371042272E-17
 73.80599976   -0.6371033586E-17
 73.98650360   -0.6371017043E-17
 74.16699982   -0.6370999672E-17
 74.34750366   -0.6370985610E-17
 74.52799988   -0.6370979819E-17
 74.70850372   -0.6370983128E-17
 74.88899994   -0.6370991814E-17
 75.06950378   -0.6371002153E-17
 75.25000000   -0.6371009598E-17
 75.43049622   -0.6371011252E-17
 75.61100006   -0.6371007116E-17
 75.79149628   -0.6370996777E-17
 75.97200012   -0.6370985196E-17
 76.15249634   -0.6370975684E-17
 76.33300018   -0.6370971961E-17
 76.51349640   -0.6370976097E-17
 76.69400024   -0.6370988091E-17
 76.87449646   -0.6371004635E-17
 77.05500031   -0.6371020765E-17
 77.23549652   -0.6371031105E-17
 77.41600037   -0.6371032345E-17
 77.59649658   -0.6371024074E-17
 77.77700043   -0.6371008357E-17
 77.95749664   -0.6370990159E-17
 78.13800049   -0.6370974443E-17
 78.31849670   -0.6370964930E-17
 78.49900055   -0.6370964930E-17
 78.67949677   -0.6370974443E-17
 78.86000061   -0.6370991400E-17
 79.04049683   -0.6371010839E-17
 79.22100067   -0.6371027796E-17
 79.40149689   -0.6371038963E-17
 79.58200073   -0.6371042685E-17
 79.76249695   -0.6371038963E-17
 79.94300079   -0.6371029037E-17
 80.12349701   -0.6371016629E-17
 80.30400085   -0.6371003808E-17
 80.48449707   -0.6370995122E-17
 80.66500092   -0.6370990573E-17
 80.84549713   -0.6370990573E-17
 81.02600098   -0.6370993882E-17
 81.20649719   -0.6370998431E-17
 81.38700104   -0.6371003394E-17
 81.56749725   -0.6371005876E-17
 81.74800110   -0.6371004635E-17
 81.92849731   -0.6370999672E-17
 82.10900116   -0.6370992641E-17
 82.28949738   -0.6370986851E-17
 82.47000122   -0.6370983955E-17
 82.65049744   -0.6370985610E-17
 82.83100128   -0.6370991814E-17
 83.01149750   -0.6371000913E-17
 83.19200134   -0.6371010839E-17
 83.37249756   -0.6371019111E-17
 83.55300140   -0.6371022833E-17
 83.73349762   -0.6371022006E-17
 83.91400146   -0.6371017043E-17
 84.09449768   -0.6371008771E-17
 84.27500153   -0.6370998431E-17
 84.45549774   -0.6370987678E-17
 84.63600159   -0.6370978579E-17
 84.81649780   -0.6370972375E-17
 84.99700165   -0.6370968653E-17
 85.17749786   -0.6370967412E-17
 85.35800171   -0.6370969480E-17
 85.53849792   -0.6370974443E-17
 85.71900177   -0.6370982715E-17
 85.89949799   -0.6370993054E-17
 86.08000183   -0.6371005048E-17
 86.26049805   -0.6371017043E-17
 86.44100189   -0.6371027796E-17
 86.62149811   -0.6371036068E-17
 86.80200195   -0.6371040204E-17
 86.98249817   -0.6371041031E-17
 87.16300201   -0.6371037309E-17
 87.34349823   -0.6371029037E-17
 87.52400208   -0.6371017043E-17
 87.70449829   -0.6371002153E-17
 87.88500214   -0.6370985610E-17
 88.06549835   -0.6370968653E-17
 88.24600220   -0.6370953763E-17
 88.42649841   -0.6370942183E-17
 88.60700226   -0.6370937220E-17
 88.78749847   -0.6370938460E-17
 88.96800232   -0.6370947559E-17
 89.14849854   -0.6370961621E-17
 89.32900238   -0.6370981474E-17
 89.50949860   -0.6371002567E-17
 89.69000244   -0.6371024074E-17
 89.87049866   -0.6371041031E-17
 90.05100250   -0.6371051784E-17
 90.23149872   -0.6371053439E-17
 90.41200256   -0.6371048062E-17
 90.59249878   -0.6371036068E-17
 90.77300262   -0.6371020351E-17
 90.95349884   -0.6371004635E-17
 91.13400269   -0.6370991400E-17
 91.31449890   -0.6370984369E-17
 91.49500275   -0.6370985196E-17
 91.67549896   -0.6370993054E-17
 91.85600281   -0.6371005876E-17
 92.03649902   -0.6371020351E-17
 92.21700287   -0.6371032345E-17
 92.39749908   -0.6371038549E-17
 92.57800293   -0.6371037309E-17
 92.75849915   -0.6371028210E-17
 92.93900299   -0.6371014147E-17
 93.11949921   -0.6370996777E-17
 93.30000305   -0.6370981474E-17
 93.48049927   -0.6370969480E-17
 93.66100311   -0.6370961621E-17
 93.84149933   -0.6370958726E-17
 94.02200317   -0.6370958726E-17
 94.20249939   -0.6370959967E-17
 94.38300323   -0.6370961621E-17
 94.56349945   -0.6370964517E-17
 94.74400330   -0.6370967412E-17
 94.92449951   -0.6370972375E-17
 95.10500336   -0.6370981474E-17
 95.28549957   -0.6370993882E-17
 95.46600342   -0.6371010012E-17
 95.64649963   -0.6371029450E-17
 95.82700348   -0.6371048062E-17
 96.00749969   -0.6371061710E-17
 96.18800354   -0.6371066673E-17
 96.36849976   -0.6371061710E-17
 96.54900360   -0.6371046408E-17
 96.72949982   -0.6371022833E-17
 96.91000366   -0.6370995122E-17
 97.09049988   -0.6370969893E-17
 97.27100372   -0.6370953763E-17
 97.45149994   -0.6370949214E-17
 97.63200378   -0.6370959140E-17
 97.81250000   -0.6370981887E-17
 97.99299622   -0.6371012080E-17
 98.17350006   -0.6371040204E-17
 98.35399628   -0.6371060470E-17
 98.53450012   -0.6371066673E-17
 98.71499634   -0.6371056747E-17
 98.89550018   -0.6371033586E-17
 99.07599640   -0.6371002567E-17
 99.25650024   -0.6370972375E-17
 99.43699646   -0.6370949214E-17
 99.61750031   -0.6370937220E-17
 99.79799652   -0.6370938460E-17
 99.97850037   -0.6370951282E-17
 100.1589966   -0.6370971134E-17
 100.3395004   -0.6370992641E-17
 100.5199966   -0.6371009598E-17
 100.7005005   -0.6371019111E-17
 100.8809967   -0.6371019111E-17
 101.0615005   -0.6371012080E-17
 101.2419968   -0.6371002567E-17
 101.4225006   -0.6370993882E-17
 101.6029968   -0.6370990159E-17
 101.7835007   -0.6370991400E-17
 101.9639969   -0.6370996363E-17
 102.1445007   -0.6371002567E-17
 102.3249969   -0.6371007530E-17
 102.5055008   -0.6371008771E-17
 102.6859970   -0.6371006289E-17
 102.8665009   -0.6371000913E-17
 103.0469971   -0.6370994295E-17
 103.2275009   -0.6370991400E-17
 103.4079971   -0.6370994295E-17
 103.5885010   -0.6371005876E-17
 103.7689972   -0.6371023246E-17
 103.9495010   -0.6371042272E-17
 104.1299973   -0.6371057161E-17
 104.3105011   -0.6371061710E-17
 104.4909973   -0.6371052198E-17
 104.6715012   -0.6371031105E-17
 104.8519974   -0.6371000913E-17
 105.0325012   -0.6370969480E-17
 105.2129974   -0.6370944251E-17
 105.3935013   -0.6370929775E-17
 105.5739975   -0.6370930189E-17
 105.7545013   -0.6370944664E-17
 105.9349976   -0.6370969480E-17
 106.1155014   -0.6370996363E-17
 106.2959976   -0.6371019111E-17
 106.4765015   -0.6371031518E-17
 106.6569977   -0.6371030277E-17
 106.8375015   -0.6371017043E-17
 107.0179977   -0.6370996363E-17
 107.1985016   -0.6370975684E-17
 107.3789978   -0.6370961208E-17
 107.5595016   -0.6370957486E-17
 107.7399979   -0.6370964930E-17
 107.9205017   -0.6370981887E-17
 108.1009979   -0.6371002567E-17
 108.2815018   -0.6371022006E-17
 108.4619980   -0.6371035241E-17
 108.6425018   -0.6371039790E-17
 108.8229980   -0.6371033586E-17
 109.0035019   -0.6371020351E-17
 109.1839981   -0.6371005048E-17
 109.3645020   -0.6370992641E-17
 109.5449982   -0.6370988091E-17
 109.7255020   -0.6370992641E-17
 109.9059982   -0.6371003808E-17
 110.0865021   -0.6371017870E-17
 110.2669983   -0.6371028210E-17
 110.4475021   -0.6371031518E-17
 110.6279984   -0.6371025728E-17
 110.8085022   -0.6371012493E-17
 110.9889984   -0.6370994295E-17
 111.1695023   -0.6370976097E-17
 111.3499985   -0.6370963689E-17
 111.5305023   -0.6370959967E-17
 111.7109985   -0.6370964930E-17
 111.8915024   -0.6370977338E-17
 112.0719986   -0.6370993054E-17
 112.2525024   -0.6371007530E-17
 112.4329987   -0.6371017043E-17
 112.6135025   -0.6371020765E-17
 112.7939987   -0.6371019524E-17
 112.9745026   -0.6371015802E-17
 113.1549988   -0.6371012080E-17
 113.3355026   -0.6371010839E-17
 113.5159988   -0.6371012493E-17
 113.6965027   -0.6371017043E-17
 113.8769989   -0.6371022833E-17
 114.0575027   -0.6371026555E-17
 114.2379990   -0.6371025728E-17
 114.4185028   -0.6371020765E-17
 114.5989990   -0.6371010839E-17
 114.7795029   -0.6370998845E-17
 114.9599991   -0.6370986851E-17
 115.1405029   -0.6370978165E-17
 115.3209991   -0.6370974443E-17
 115.5015030   -0.6370976924E-17
 115.6819992   -0.6370984369E-17
 115.8625031   -0.6370994295E-17
 116.0429993   -0.6371003394E-17
 116.2235031   -0.6371008357E-17
 116.4039993   -0.6371007530E-17
 116.5845032   -0.6371002153E-17
 116.7649994   -0.6370994295E-17
 116.9455032   -0.6370988091E-17
 117.1259995   -0.6370986851E-17
 117.3065033   -0.6370991814E-17
 117.4869995   -0.6371003394E-17
 117.6675034   -0.6371016629E-17
 117.8479996   -0.6371028210E-17
 118.0285034   -0.6371035241E-17
 118.2089996   -0.6371034827E-17
 118.3895035   -0.6371024487E-17
 118.5699997   -0.6371007116E-17
 118.7505035   -0.6370985610E-17
 118.9309998   -0.6370965757E-17
 119.1115036   -0.6370950455E-17
 119.2919998   -0.6370943010E-17
 119.4725037   -0.6370945491E-17
 119.6529999   -0.6370956658E-17
 119.8335037   -0.6370974443E-17
 120.0139999   -0.6370995536E-17
 120.1945038   -0.6371016629E-17
 120.3750000   -0.6371034000E-17
 120.5554962   -0.6371045167E-17
 120.7360001   -0.6371049716E-17
 120.9164963   -0.6371045994E-17
 121.0970001   -0.6371034827E-17
 121.2774963   -0.6371018283E-17
 121.4580002   -0.6370998845E-17
 121.6384964   -0.6370980647E-17
 121.8190002   -0.6370965757E-17
 121.9994965   -0.6370957899E-17
 122.1800003   -0.6370959140E-17
 122.3604965   -0.6370969480E-17
 122.5410004   -0.6370986851E-17
 122.7214966   -0.6371010012E-17
 122.9020004   -0.6371035241E-17
 123.0824966   -0.6371055920E-17
 123.2630005   -0.6371067914E-17
 123.4434967   -0.6371067501E-17
 123.6240005   -0.6371053025E-17
 123.8044968   -0.6371026969E-17
 123.9850006   -0.6370995122E-17
 124.1654968   -0.6370964517E-17
 124.3460007   -0.6370940528E-17
 124.5264969   -0.6370929775E-17
 124.7070007   -0.6370934325E-17
 124.8874969   -0.6370951695E-17
 125.0680008   -0.6370977338E-17
 125.2484970   -0.6371004635E-17
 125.4290009   -0.6371026555E-17
 125.6094971   -0.6371037722E-17
 125.7900009   -0.6371036481E-17
 125.9704971   -0.6371023246E-17
 126.1510010   -0.6371002567E-17
 126.3314972   -0.6370980647E-17
 126.5120010   -0.6370964517E-17
 126.6924973   -0.6370957899E-17
 126.8730011   -0.6370962449E-17
 127.0534973   -0.6370975684E-17
 127.2340012   -0.6370992641E-17
 127.4144974   -0.6371008357E-17
 127.5950012   -0.6371017043E-17
 127.7754974   -0.6371017870E-17
 127.9560013   -0.6371010839E-17
 128.1365051   -0.6370998431E-17
 128.3170013   -0.6370984369E-17
 128.4974976   -0.6370974443E-17
 128.6779938   -0.6370971961E-17
 128.8585052   -0.6370978165E-17
 129.0390015   -0.6370991814E-17
 129.2194977   -0.6371009598E-17
 129.3999939   -0.6371025728E-17
 129.5805054   -0.6371036481E-17
 129.7610016   -0.6371038549E-17
 129.9414978   -0.6371030277E-17
 130.1219940   -0.6371015802E-17
 130.3025055   -0.6370998845E-17
 130.4830017   -0.6370984369E-17
 130.6634979   -0.6370977338E-17
 130.8439941   -0.6370979406E-17
 131.0245056   -0.6370989332E-17
 131.2050018   -0.6371004635E-17
 131.3854980   -0.6371019524E-17
 131.5659943   -0.6371031105E-17
 131.7465057   -0.6371036481E-17
 131.9270020   -0.6371036481E-17
 132.1074982   -0.6371031518E-17
 132.2879944   -0.6371025728E-17
 132.4685059   -0.6371020765E-17
 132.6490021   -0.6371017870E-17
 132.8294983   -0.6371015802E-17
 133.0099945   -0.6371012493E-17
 133.1905060   -0.6371007116E-17
 133.3710022   -0.6370996363E-17
 133.5514984   -0.6370982715E-17
 133.7319946   -0.6370966998E-17
 133.9125061   -0.6370952936E-17
 134.0930023   -0.6370946732E-17
 134.2734985   -0.6370951282E-17
 134.4539948   -0.6370968239E-17
 134.6345062   -0.6370996777E-17
 134.8150024   -0.6371032345E-17
 134.9954987   -0.6371066673E-17
 135.1759949   -0.6371092316E-17
 135.3565063   -0.6371102656E-17
 135.5370026   -0.6371094384E-17
 135.7174988   -0.6371069982E-17
 135.8979950   -0.6371035241E-17
 136.0785065   -0.6370999672E-17
 136.2590027   -0.6370972375E-17
 136.4394989   -0.6370959967E-17
 136.6199951   -0.6370963689E-17
 136.8005066   -0.6370981474E-17
 136.9810028   -0.6371004635E-17
 137.1614990   -0.6371024074E-17
 137.3419952   -0.6371031105E-17
 137.5225067   -0.6371021592E-17
 137.7030029   -0.6370995122E-17
 137.8834991   -0.6370957486E-17
 138.0639954   -0.6370917367E-17
 138.2445068   -0.6370885934E-17
 138.4250031   -0.6370871872E-17
 138.6054993   -0.6370879317E-17
 138.7859955   -0.6370907028E-17
 138.9665070   -0.6370947973E-17
 139.1470032   -0.6370992641E-17
 139.3274994   -0.6371030277E-17
 139.5079956   -0.6371053025E-17
 139.6885071   -0.6371058402E-17
 139.8690033   -0.6371048062E-17
 140.0494995   -0.6371025728E-17
 140.2299957   -0.6371000085E-17
 140.4105072   -0.6370979406E-17
 140.5910034   -0.6370968653E-17
 140.7714996   -0.6370971134E-17
 140.9519958   -0.6370985196E-17
 141.1325073   -0.6371005876E-17
 141.3130035   -0.6371026969E-17
 141.4934998   -0.6371043512E-17
 141.6739960   -0.6371049303E-17
 141.8545074   -0.6371045167E-17
 142.0350037   -0.6371032759E-17
 142.2154999   -0.6371016629E-17
 142.3959961   -0.6371000085E-17
 142.5765076   -0.6370988091E-17
 142.7570038   -0.6370981887E-17
 142.9375000   -0.6370980647E-17
 143.1179962   -0.6370983128E-17
 143.2984924   -0.6370986437E-17
 143.4790039   -0.6370989332E-17
 143.6595001   -0.6370992641E-17
 143.8399963   -0.6370996363E-17
 144.0204926   -0.6371002567E-17
 144.2010040   -0.6371014147E-17
 144.3815002   -0.6371031518E-17
 144.5619965   -0.6371053025E-17
 144.7424927   -0.6371073704E-17
 144.9230042   -0.6371088180E-17
 145.1035004   -0.6371091075E-17
 145.2839966   -0.6371079081E-17
 145.4644928   -0.6371050957E-17
 145.6450043   -0.6371010012E-17
 145.8255005   -0.6370962862E-17
 146.0059967   -0.6370917781E-17
 146.1864929   -0.6370882626E-17
 146.3670044   -0.6370865669E-17
 146.5475006   -0.6370870218E-17
 146.7279968   -0.6370895861E-17
 146.9084930   -0.6370938047E-17
 147.0890045   -0.6370987678E-17
 147.2695007   -0.6371034827E-17
 147.4499969   -0.6371069155E-17
 147.6304932   -0.6371085699E-17
 147.8110046   -0.6371080736E-17
 147.9915009   -0.6371057161E-17
 148.1719971   -0.6371022833E-17
 148.3524933   -0.6370985610E-17