  -15.000000       -7.46959065E-18
  -14.819500       -7.46959065E-18
  -14.639000       -7.46959065E-18
  -14.458500       -7.46959148E-18
  -14.278000       -7.46959148E-18
  -14.097500       -7.46959231E-18
  -13.917000       -7.46959231E-18
  -13.736500       -7.46959313E-18
  -13.556000       -7.46959313E-18
  -13.375500       -7.46959313E-18
  -13.195000       -7.46959313E-18
  -13.014500       -7.46959231E-18
  -12.834000       -7.46959148E-18
  -12.653500       -7.46959148E-18
  -12.473000       -7.46959065E-18
  -12.292500       -7.46958982E-18
  -12.112000       -7.46958982E-18
  -11.931500       -7.46958982E-18
  -11.751000       -7.46959065E-18
  -11.570500       -7.46959065E-18
  -11.390000       -7.46959231E-18
  -11.209500       -7.46959396E-18
  -11.029000       -7.46959479E-18
  -10.848500       -7.46959561E-18
  -10.668000       -7.46959561E-18
  -10.487500       -7.46959561E-18
  -10.307000       -7.46959479E-18
  -10.126500       -7.46959396E-18
  -9.9460001       -7.46959231E-18
  -9.7655001       -7.46959065E-18
  -9.5850000       -7.46958900E-18
  -9.4045000       -7.46958817E-18
  -9.2240000       -7.46958817E-18
  -9.0434999       -7.46958900E-18
  -8.8629999       -7.46959065E-18
  -8.6824999       -7.46959148E-18
  -8.5019999       -7.46959396E-18
  -8.3214998       -7.46959479E-18
  -8.1409998       -7.46959644E-18
  -7.9604998       -7.46959644E-18
  -7.7800002       -7.46959644E-18
  -7.5995002       -7.46959561E-18
  -7.4190001       -7.46959479E-18
  -7.2385001       -7.46959313E-18
  -7.0580001       -7.46959231E-18
  -6.8775001       -7.46959065E-18
  -6.6970000       -7.46958900E-18
  -6.5165000       -7.46958817E-18
  -6.3360000       -7.46958817E-18
  -6.1554999       -7.46958817E-18
  -5.9749999       -7.46958817E-18
  -5.7944999       -7.46958900E-18
  -5.6139998       -7.46958982E-18
  -5.4334998       -7.46959065E-18
  -5.2529998       -7.46959148E-18
  -5.0725002       -7.46959148E-18
  -4.8920002       -7.46959065E-18
  -4.7115002       -7.46959065E-18
  -4.5310001       -7.46958982E-18
  -4.3505001       -7.46958817E-18
  -4.1700001       -7.46958734E-18
  -3.9895000       -7.46958652E-18
  -3.8090000       -7.46958652E-18
  -3.6285000       -7.46958734E-18
  -3.4480000       -7.46958817E-18
  -3.2674999       -7.46959065E-18
  -3.0869999       -7.46959396E-18
  -2.9065001       -7.46959727E-18
  -2.7260001       -7.46959975E-18
  -2.5455000       -7.46960223E-18
  -2.3650000       -7.46960306E-18
  -2.1845000       -7.46960306E-18
  -2.0039999       -7.46960140E-18
  -1.8235000       -7.46959892E-18
  -1.6430000       -7.46959479E-18
  -1.4625000       -7.46959148E-18
  -1.2819999       -7.46958734E-18
  -1.1015000       -7.46958486E-18
 -0.92100000       -7.46958321E-18
 -0.74049997       -7.46958238E-18
 -0.56000000       -7.46958238E-18
 -0.37950000       -7.46958321E-18
 -0.19900000       -7.46958569E-18
 -1.85000002E-02   -7.46958817E-18
  0.16200000       -7.46959065E-18
  0.34250000       -7.46959313E-18
  0.52300000       -7.46959561E-18
  0.70349997       -7.46959561E-18
  0.88400000       -7.46959561E-18
   1.0645000       -7.46959561E-18
   1.2450000       -7.46959479E-18
   1.4255000       -7.46959396E-18
   1.6059999       -7.46959231E-18
   1.7865000       -7.46959148E-18
   1.9670000       -7.46959065E-18
   2.1475000       -7.46959148E-18
   2.3280001       -7.46959231E-18
   2.5085001       -7.46959313E-18
   2.6889999       -7.46959479E-18
   2.8694999       -7.46959561E-18
   3.0500000       -7.46959644E-18
   3.2305000       -7.46959561E-18
   3.4110000       -7.46959396E-18
   3.5915000       -7.46959065E-18
   3.7720001       -7.46958817E-18
   3.9525001       -7.46958486E-18
   4.1329999       -7.46958238E-18
   4.3134999       -7.46958072E-18
   4.4940000       -7.46958155E-18
   4.6745000       -7.46958321E-18
   4.8550000       -7.46958652E-18
   5.0355000       -7.46959065E-18
   5.2160001       -7.46959479E-18
   5.3965001       -7.46959892E-18
   5.5770001       -7.46960058E-18
   5.7575002       -7.46960140E-18
   5.9380002       -7.46959892E-18
   6.1185002       -7.46959479E-18
   6.2989998       -7.46959065E-18
   6.4794998       -7.46958569E-18
   6.6599998       -7.46958155E-18
   6.8404999       -7.46957907E-18
   7.0209999       -7.46957907E-18
   7.2014999       -7.46958155E-18
   7.3820000       -7.46958569E-18
   7.5625000       -7.46958982E-18
   7.7430000       -7.46959479E-18
   7.9235001       -7.46959810E-18
   8.1040001       -7.46960058E-18
   8.2845001       -7.46960058E-18
   8.4650002       -7.46959892E-18
   8.6455002       -7.46959561E-18
   8.8260002       -7.46959231E-18
   9.0065002       -7.46958900E-18
   9.1870003       -7.46958817E-18
   9.3675003       -7.46958817E-18
   9.5480003       -7.46958982E-18
   9.7285004       -7.46959231E-18
   9.9090004       -7.46959561E-18
   10.089500       -7.46959727E-18
   10.270000       -7.46959892E-18
   10.450500       -7.46959810E-18
   10.631000       -7.46959644E-18
   10.811500       -7.46959313E-18
   10.992000       -7.46958982E-18
   11.172500       -7.46958734E-18
   11.353000       -7.46958569E-18
   11.533500       -7.46958569E-18
   11.714000       -7.46958652E-18
   11.894500       -7.46958900E-18
   12.075000       -7.46959231E-18
   12.255500       -7.46959561E-18
   12.436000       -7.46959810E-18
   12.616500       -7.46959892E-18
   12.797000       -7.46959975E-18
   12.977500       -7.46959892E-18
   13.158000       -7.46959727E-18
   13.338500       -7.46959479E-18
   13.519000       -7.46959231E-18
   13.699500       -7.46959065E-18
   13.880000       -7.46958900E-18
   14.060500       -7.46958734E-18
   14.241000       -7.46958734E-18
   14.421500       -7.46958652E-18
   14.602000       -7.46958652E-18
   14.782500       -7.46958569E-18
   14.963000       -7.46958652E-18
   15.143500       -7.46958734E-18
   15.324000       -7.46958900E-18
   15.504500       -7.46959065E-18
   15.685000       -7.46959313E-18
   15.865500       -7.46959561E-18
   16.046000       -7.46959810E-18
   16.226500       -7.46959975E-18
   16.407000       -7.46960140E-18
   16.587500       -7.46960140E-18
   16.768000       -7.46960058E-18
   16.948500       -7.46959892E-18
   17.129000       -7.46959727E-18
   17.309500       -7.46959479E-18
   17.490000       -7.46959231E-18
   17.670500       -7.46958900E-18
   17.851000       -7.46958486E-18
   18.031500       -7.46958238E-18
   18.212000       -7.46957990E-18
   18.392500       -7.46957907E-18
   18.573000       -7.46957990E-18
   18.753500       -7.46958155E-18
   18.934000       -7.46958403E-18
   19.114500       -7.46958652E-18
   19.295000       -7.46958982E-18
   19.475500       -7.46959313E-18
   19.656000       -7.46959644E-18
   19.836500       -7.46959810E-18
   20.017000       -7.46959892E-18
   20.197500       -7.46959975E-18
   20.378000       -7.46959892E-18
   20.558500       -7.46959727E-18
   20.739000       -7.46959644E-18
   20.919500       -7.46959479E-18
   21.100000       -7.46959479E-18
   21.280500       -7.46959479E-18
   21.461000       -7.46959479E-18
   21.641500       -7.46959561E-18
   21.822001       -7.46959644E-18
   22.002501       -7.46959644E-18
   22.183001       -7.46959644E-18
   22.363501       -7.46959396E-18
   22.544001       -7.46959148E-18
   22.724501       -7.46958817E-18
   22.905001       -7.46958403E-18
   23.085501       -7.46958072E-18
   23.266001       -7.46957907E-18
   23.446501       -7.46957824E-18
   23.627001       -7.46957824E-18
   23.807501       -7.46957990E-18
   23.988001       -7.46958321E-18
   24.168501       -7.46958734E-18
   24.349001       -7.46959148E-18
   24.529499       -7.46959396E-18
   24.709999       -7.46959561E-18
   24.890499       -7.46959644E-18
   25.070999       -7.46959561E-18
   25.251499       -7.46959313E-18
   25.431999       -7.46958900E-18
   25.612499       -7.46958486E-18
   25.792999       -7.46958072E-18
   25.973499       -7.46957824E-18
   26.153999       -7.46957742E-18
   26.334499       -7.46957990E-18
   26.514999       -7.46958321E-18
   26.695499       -7.46959065E-18
   26.875999       -7.46959892E-18
   27.056499       -7.46960719E-18
   27.237000       -7.46961547E-18
   27.417500       -7.46962043E-18
   27.598000       -7.46962208E-18
   27.778500       -7.46961960E-18
   27.959000       -7.46961298E-18
   28.139500       -7.46960389E-18
   28.320000       -7.46959231E-18
   28.500500       -7.46958238E-18
   28.681000       -7.46957411E-18
   28.861500       -7.46956997E-18
   29.042000       -7.46957080E-18
   29.222500       -7.46957493E-18
   29.403000       -7.46958238E-18
   29.583500       -7.46959065E-18
   29.764000       -7.46959892E-18
   29.944500       -7.46960389E-18
   30.125000       -7.46960637E-18
   30.305500       -7.46960389E-18
   30.486000       -7.46959892E-18
   30.666500       -7.46959065E-18
   30.847000       -7.46958321E-18
   31.027500       -7.46957659E-18
   31.208000       -7.46957411E-18
   31.388500       -7.46957659E-18
   31.569000       -7.46958238E-18
   31.749500       -7.46959231E-18
   31.930000       -7.46960306E-18
   32.110500       -7.46961381E-18
   32.291000       -7.46962126E-18
   32.471500       -7.46962374E-18
   32.652000       -7.46962043E-18
   32.832500       -7.46961216E-18
   33.013000       -7.46959892E-18
   33.193501       -7.46958569E-18
   33.374001       -7.46957328E-18
   33.554501       -7.46956501E-18
   33.735001       -7.46956087E-18
   33.915501       -7.46956335E-18
   34.096001       -7.46957163E-18
   34.276501       -7.46958238E-18
   34.457001       -7.46959479E-18
   34.637501       -7.46960306E-18
   34.818001       -7.46960802E-18
   34.998501       -7.46960637E-18
   35.179001       -7.46959975E-18
   35.359501       -7.46958817E-18
   35.540001       -7.46957659E-18
   35.720501       -7.46956501E-18
   35.901001       -7.46955756E-18
   36.081501       -7.46955674E-18
   36.262001       -7.46956335E-18
   36.442501       -7.46957576E-18
   36.623001       -7.46959313E-18
   36.803501       -7.46961050E-18
   36.984001       -7.46962539E-18
   37.164501       -7.46963366E-18
   37.345001       -7.46963366E-18
   37.525501       -7.46962539E-18
   37.706001       -7.46961133E-18
   37.886501       -7.46959313E-18
   38.067001       -7.46957576E-18
   38.247501       -7.46956253E-18
   38.428001       -7.46955756E-18
   38.608501       -7.46956005E-18
   38.789001       -7.46956997E-18
   38.969501       -7.46958652E-18
   39.150002       -7.46960471E-18
   39.330502       -7.46962126E-18
   39.511002       -7.46963366E-18
   39.691502       -7.46963863E-18
   39.872002       -7.46963532E-18
   40.052502       -7.46962457E-18
   40.233002       -7.46960885E-18
   40.413502       -7.46959231E-18
   40.594002       -7.46957742E-18
   40.774502       -7.46956749E-18
   40.955002       -7.46956501E-18
   41.135502       -7.46956914E-18
   41.316002       -7.46957907E-18
   41.496498       -7.46959148E-18
   41.676998       -7.46960306E-18
   41.857498       -7.46961050E-18
   42.037998       -7.46961216E-18
   42.218498       -7.46960802E-18
   42.398998       -7.46959727E-18
   42.579498       -7.46958403E-18
   42.759998       -7.46956914E-18
   42.940498       -7.46955591E-18
   43.120998       -7.46954846E-18
   43.301498       -7.46954681E-18
   43.481998       -7.46955343E-18
   43.662498       -7.46956501E-18
   43.842999       -7.46958072E-18
   44.023499       -7.46959727E-18
   44.203999       -7.46961216E-18
   44.384499       -7.46962374E-18
   44.564999       -7.46962870E-18
   44.745499       -7.46962787E-18
   44.925999       -7.46962126E-18
   45.106499       -7.46961216E-18
   45.286999       -7.46960058E-18
   45.467499       -7.46959148E-18
   45.647999       -7.46958486E-18
   45.828499       -7.46958155E-18
   46.008999       -7.46958155E-18
   46.189499       -7.46958486E-18
   46.369999       -7.46959065E-18
   46.550499       -7.46959727E-18
   46.730999       -7.46960306E-18
   46.911499       -7.46960637E-18
   47.091999       -7.46960719E-18
   47.272499       -7.46960471E-18
   47.452999       -7.46959892E-18
   47.633499       -7.46959148E-18
   47.813999       -7.46958321E-18
   47.994499       -7.46957493E-18
   48.174999       -7.46956832E-18
   48.355499       -7.46956584E-18
   48.535999       -7.46956501E-18
   48.716499       -7.46956914E-18
   48.896999       -7.46957576E-18
   49.077499       -7.46958486E-18
   49.257999       -7.46959561E-18
   49.438499       -7.46960554E-18
   49.618999       -7.46961464E-18
   49.799500       -7.46962126E-18
   49.980000       -7.46962457E-18
   50.160500       -7.46962208E-18
   50.341000       -7.46961712E-18
   50.521500       -7.46960802E-18
   50.702000       -7.46959727E-18
   50.882500       -7.46958652E-18
   51.063000       -7.46957742E-18
   51.243500       -7.46957245E-18
   51.424000       -7.46957163E-18
   51.604500       -7.46957493E-18
   51.785000       -7.46958321E-18
   51.965500       -7.46959313E-18
   52.146000       -7.46960306E-18
   52.326500       -7.46961133E-18
   52.507000       -7.46961547E-18
   52.687500       -7.46961464E-18
   52.868000       -7.46960885E-18
   53.048500       -7.46959892E-18
   53.229000       -7.46958734E-18
   53.409500       -7.46957493E-18
   53.590000       -7.46956584E-18
   53.770500       -7.46956253E-18
   53.951000       -7.46956501E-18
   54.131500       -7.46957328E-18
   54.312000       -7.46958569E-18
   54.492500       -7.46960058E-18
   54.673000       -7.46961381E-18
   54.853500       -7.46962291E-18
   55.034000       -7.46962539E-18
   55.214500       -7.46962126E-18
   55.395000       -7.46961050E-18
   55.575500       -7.46959479E-18
   55.756001       -7.46957824E-18
   55.936501       -7.46956253E-18
   56.117001       -7.46955095E-18
   56.297501       -7.46954516E-18
   56.478001       -7.46954764E-18
   56.658501       -7.46955674E-18
   56.839001       -7.46957080E-18
   57.019501       -7.46958652E-18
   57.200001       -7.46960223E-18
   57.380501       -7.46961381E-18
   57.561001       -7.46961960E-18
   57.741501       -7.46962126E-18
   57.922001       -7.46961712E-18
   58.102501       -7.46961050E-18
   58.283001       -7.46960058E-18
   58.463501       -7.46959148E-18
   58.644001       -7.46958321E-18
   58.824501       -7.46957824E-18
   59.005001       -7.46957659E-18
   59.185501       -7.46957742E-18
   59.366001       -7.46957907E-18
   59.546501       -7.46958321E-18
   59.727001       -7.46958652E-18
   59.907501       -7.46958900E-18
   60.088001       -7.46958982E-18
   60.268501       -7.46959065E-18
   60.449001       -7.46959148E-18
   60.629501       -7.46959148E-18
   60.810001       -7.46959065E-18
   60.990501       -7.46958982E-18
   61.171001       -7.46959065E-18
   61.351501       -7.46959065E-18
   61.532001       -7.46959065E-18
   61.712502       -7.46959148E-18
   61.893002       -7.46959479E-18
   62.073502       -7.46959892E-18
   62.254002       -7.46960471E-18
   62.434502       -7.46961133E-18
   62.615002       -7.46961712E-18
   62.795502       -7.46962291E-18
   62.976002       -7.46962539E-18
   63.156502       -7.46962622E-18
   63.337002       -7.46962291E-18
   63.517502       -7.46961629E-18
   63.698002       -7.46960719E-18
   63.878502       -7.46959727E-18
   64.058998       -7.46958734E-18
   64.239502       -7.46957990E-18
   64.419998       -7.46957576E-18
   64.600502       -7.46957493E-18
   64.780998       -7.46957742E-18
   64.961502       -7.46958072E-18
   65.141998       -7.46958403E-18
   65.322502       -7.46958734E-18
   65.502998       -7.46958734E-18
   65.683502       -7.46958486E-18
   65.863998       -7.46957990E-18
   66.044502       -7.46957411E-18
   66.224998       -7.46956749E-18
   66.405502       -7.46956335E-18
   66.585999       -7.46956253E-18
   66.766502       -7.46956584E-18
   66.946999       -7.46957245E-18
   67.127502       -7.46958238E-18
   67.307999       -7.46959396E-18
   67.488503       -7.46960554E-18
   67.668999       -7.46961381E-18
   67.849503       -7.46961878E-18
   68.029999       -7.46961960E-18
   68.210503       -7.46961464E-18
   68.390999       -7.46960554E-18
   68.571503       -7.46959396E-18
   68.751999       -7.46958238E-18
   68.932503       -7.46957245E-18
   69.112999       -7.46956666E-18
   69.293503       -7.46956418E-18
   69.473999       -7.46956749E-18
   69.654503       -7.46957493E-18
   69.834999       -7.46958403E-18
   70.015503       -7.46959313E-18
   70.195999       -7.46960140E-18
   70.376503       -7.46960471E-18
   70.556999       -7.46960554E-18
   70.737503       -7.46960223E-18
   70.917999       -7.46959479E-18
   71.098503       -7.46958652E-18
   71.278999       -7.46957907E-18
   71.459503       -7.46957411E-18
   71.639999       -7.46957163E-18
   71.820503       -7.46957163E-18
   72.000999       -7.46957493E-18
   72.181503       -7.46958155E-18
   72.362000       -7.46958734E-18
   72.542503       -7.46959313E-18
   72.723000       -7.46959644E-18
   72.903503       -7.46959810E-18
   73.084000       -7.46959892E-18
   73.264503       -7.46959810E-18
   73.445000       -7.46959810E-18
   73.625504       -7.46959975E-18
   73.806000       -7.46960223E-18
   73.986504       -7.46960719E-18
   74.167000       -7.46961298E-18
   74.347504       -7.46961878E-18
   74.528000       -7.46962291E-18
   74.708504       -7.46962291E-18
   74.889000       -7.46961960E-18
   75.069504       -7.46961216E-18
   75.250000       -7.46960223E-18
   75.430496       -7.46958982E-18
   75.611000       -7.46957742E-18
   75.791496       -7.46956832E-18
   75.972000       -7.46956253E-18
   76.152496       -7.46956170E-18
   76.333000       -7.46956584E-18
   76.513496       -7.46957411E-18
   76.694000       -7.46958569E-18
   76.874496       -7.46959644E-18
   77.055000       -7.46960471E-18
   77.235497       -7.46960968E-18
   77.416000       -7.46960968E-18
   77.596497       -7.46960554E-18
   77.777000       -7.46959727E-18
   77.957497       -7.46958817E-18
   78.138000       -7.46958072E-18
   78.318497       -7.46957411E-18
   78.499001       -7.46957245E-18
   78.679497       -7.46957493E-18
   78.860001       -7.46958072E-18
   79.040497       -7.46958817E-18
   79.221001       -7.46959727E-18
   79.401497       -7.46960389E-18
   79.582001       -7.46960719E-18
   79.762497       -7.46960719E-18
   79.943001       -7.46960140E-18
   80.123497       -7.46959231E-18
   80.304001       -7.46958155E-18
   80.484497       -7.46957080E-18
   80.665001       -7.46956170E-18
   80.845497       -7.46955674E-18
   81.026001       -7.46955674E-18
   81.206497       -7.46956170E-18
   81.387001       -7.46957245E-18
   81.567497       -7.46958569E-18
   81.748001       -7.46960140E-18
   81.928497       -7.46961464E-18
   82.109001       -7.46962457E-18
   82.289497       -7.46963036E-18
   82.470001       -7.46963118E-18
   82.650497       -7.46962622E-18
   82.831001       -7.46961795E-18
   83.011497       -7.46960637E-18
   83.192001       -7.46959396E-18
   83.372498       -7.46958238E-18
   83.553001       -7.46957411E-18
   83.733498       -7.46957080E-18
   83.914001       -7.46957163E-18
   84.094498       -7.46957824E-18
   84.275002       -7.46958734E-18
   84.455498       -7.46959810E-18
   84.636002       -7.46960885E-18
   84.816498       -7.46961547E-18
   84.997002       -7.46961795E-18
   85.177498       -7.46961381E-18
   85.358002       -7.46960471E-18
   85.538498       -7.46959065E-18
   85.719002       -7.46957411E-18
   85.899498       -7.46955922E-18
   86.080002       -7.46954929E-18
   86.260498       -7.46954598E-18
   86.441002       -7.46955095E-18
   86.621498       -7.46956253E-18
   86.802002       -7.46958155E-18
   86.982498       -7.46960306E-18
   87.163002       -7.46962374E-18
   87.343498       -7.46964111E-18
   87.524002       -7.46965021E-18
   87.704498       -7.46964938E-18
   87.885002       -7.46963945E-18
   88.065498       -7.46962208E-18
   88.246002       -7.46959975E-18
   88.426498       -7.46957907E-18
   88.607002       -7.46956335E-18
   88.787498       -7.46955508E-18
   88.968002       -7.46955674E-18
   89.148499       -7.46956914E-18
   89.329002       -7.46958817E-18
   89.509499       -7.46961050E-18
   89.690002       -7.46963036E-18
   89.870499       -7.46964442E-18
   90.051003       -7.46964773E-18
   90.231499       -7.46963945E-18
   90.412003       -7.46962043E-18
   90.592499       -7.46959479E-18
   90.773003       -7.46956584E-18
   90.953499       -7.46954102E-18
   91.134003       -7.46952365E-18
   91.314499       -7.46951786E-18
   91.495003       -7.46952530E-18
   91.675499       -7.46954433E-18
   91.856003       -7.46957163E-18
   92.036499       -7.46960058E-18
   92.217003       -7.46962622E-18
   92.397499       -7.46964359E-18
   92.578003       -7.46964938E-18
   92.758499       -7.46964194E-18
   92.939003       -7.46962457E-18
   93.119499       -7.46959892E-18
   93.300003       -7.46957245E-18
   93.480499       -7.46954929E-18
   93.661003       -7.46953440E-18
   93.841499       -7.46952944E-18
   94.022003       -7.46953606E-18
   94.202499       -7.46955260E-18
   94.383003       -7.46957411E-18
   94.563499       -7.46959810E-18
   94.744003       -7.46961795E-18
   94.924500       -7.46963118E-18
   95.105003       -7.46963449E-18
   95.285500       -7.46962953E-18
   95.466003       -7.46961712E-18
   95.646500       -7.46960058E-18
   95.827003       -7.46958403E-18
   96.007500       -7.46957080E-18
   96.188004       -7.46956418E-18
   96.368500       -7.46956584E-18
   96.549004       -7.46957411E-18
   96.729500       -7.46958817E-18
   96.910004       -7.46960554E-18
   97.090500       -7.46962291E-18
   97.271004       -7.46963780E-18
   97.451500       -7.46964690E-18
   97.632004       -7.46964855E-18
   97.812500       -7.46964359E-18
   97.992996       -7.46963284E-18
   98.173500       -7.46961795E-18
   98.353996       -7.46960223E-18
   98.534500       -7.46958734E-18
   98.714996       -7.46957576E-18
   98.895500       -7.46956666E-18
   99.075996       -7.46956253E-18
   99.256500       -7.46956253E-18
   99.436996       -7.46956501E-18
   99.617500       -7.46956997E-18
   99.797997       -7.46957493E-18
   99.978500       -7.46957742E-18
   100.15900       -7.46957907E-18
   100.33950       -7.46957742E-18
   100.52000       -7.46957411E-18
   100.70050       -7.46956997E-18
   100.88100       -7.46956584E-18
   101.06150       -7.46956501E-18
   101.24200       -7.46956584E-18
   101.42250       -7.46957080E-18
   101.60300       -7.46957990E-18
   101.78350       -7.46959148E-18
   101.96400       -7.46960471E-18
   102.14450       -7.46961878E-18
   102.32500       -7.46963036E-18
   102.50550       -7.46963780E-18
   102.68600       -7.46964111E-18
   102.86650       -7.46963863E-18
   103.04700       -7.46963284E-18
   103.22750       -7.46962291E-18
   103.40800       -7.46961133E-18
   103.58850       -7.46960058E-18
   103.76900       -7.46959148E-18
   103.94950       -7.46958569E-18
   104.13000       -7.46958238E-18
   104.31050       -7.46958321E-18
   104.49100       -7.46958569E-18
   104.67150       -7.46958734E-18
   104.85200       -7.46958817E-18
   105.03250       -7.46958652E-18
   105.21300       -7.46958155E-18
   105.39350       -7.46957493E-18
   105.57400       -7.46956749E-18
   105.75450       -7.46955922E-18
   105.93500       -7.46955260E-18
   106.11550       -7.46954929E-18
   106.29600       -7.46954929E-18
   106.47650       -7.46955343E-18
   106.65700       -7.46956005E-18
   106.83750       -7.46956832E-18
   107.01800       -7.46957659E-18
   107.19850       -7.46958403E-18
   107.37900       -7.46958982E-18
   107.55950       -7.46959313E-18
   107.74000       -7.46959396E-18
   107.92050       -7.46959313E-18
   108.10100       -7.46959231E-18
   108.28150       -7.46959231E-18
   108.46200       -7.46959396E-18
   108.64250       -7.46959810E-18
   108.82300       -7.46960471E-18
   109.00350       -7.46961216E-18
   109.18400       -7.46961960E-18
   109.36450       -7.46962705E-18
   109.54500       -7.46963201E-18
   109.72550       -7.46963366E-18
   109.90600       -7.46963118E-18
   110.08650       -7.46962622E-18
   110.26700       -7.46961960E-18
   110.44750       -7.46961133E-18
   110.62800       -7.46960223E-18
   110.80850       -7.46959396E-18
   110.98900       -7.46958652E-18
   111.16950       -7.46957990E-18
   111.35000       -7.46957411E-18
   111.53050       -7.46956914E-18
   111.71100       -7.46956584E-18
   111.89150       -7.46956418E-18
   112.07200       -7.46956335E-18
   112.25250       -7.46956335E-18
   112.43300       -7.46956418E-18
   112.61350       -7.46956501E-18
   112.79400       -7.46956666E-18
   112.97450       -7.46956749E-18
   113.15500       -7.46956749E-18
   113.33550       -7.46956832E-18
   113.51600       -7.46956997E-18
   113.69650       -7.46957245E-18
   113.87700       -7.46957576E-18
   114.05750       -7.46958072E-18
   114.23800       -7.46958900E-18
   114.41850       -7.46959975E-18
   114.59900       -7.46961050E-18
   114.77950       -7.46962043E-18
   114.96000       -7.46962953E-18
   115.14050       -7.46963532E-18
   115.32100       -7.46963697E-18
   115.50150       -7.46963449E-18
   115.68200       -7.46962787E-18
   115.86250       -7.46961712E-18
   116.04300       -7.46960637E-18
   116.22350       -7.46959561E-18
   116.40400       -7.46958734E-18
   116.58450       -7.46958403E-18
   116.76500       -7.46958569E-18
   116.94550       -7.46959148E-18
   117.12600       -7.46959975E-18
   117.30650       -7.46960802E-18
   117.48700       -7.46961464E-18
   117.66750       -7.46961712E-18
   117.84800       -7.46961464E-18
   118.02850       -7.46960637E-18
   118.20900       -7.46959396E-18
   118.38950       -7.46957907E-18
   118.57000       -7.46956418E-18
   118.75050       -7.46955177E-18
   118.93100       -7.46954598E-18
   119.11150       -7.46954681E-18
   119.29200       -7.46955508E-18
   119.47250       -7.46956914E-18
   119.65300       -7.46958569E-18
   119.83350       -7.46960306E-18
   120.01400       -7.46961878E-18
   120.19450       -7.46962870E-18
   120.37500       -7.46963201E-18
   120.55550       -7.46962870E-18
   120.73600       -7.46962126E-18
   120.91650       -7.46960885E-18
   121.09700       -7.46959644E-18
   121.27750       -7.46958569E-18
   121.45800       -7.46957907E-18
   121.63850       -7.46957659E-18
   121.81900       -7.46957824E-18
   121.99950       -7.46958321E-18
   122.18000       -7.46958982E-18
   122.36050       -7.46959644E-18
   122.54100       -7.46959975E-18
   122.72150       -7.46959892E-18
   122.90200       -7.46959396E-18
   123.08250       -7.46958321E-18
   123.26300       -7.46957163E-18
   123.44350       -7.46955922E-18
   123.62400       -7.46954846E-18
   123.80450       -7.46954350E-18
   123.98500       -7.46954267E-18
   124.16550       -7.46954846E-18
   124.34600       -7.46956005E-18
   124.52650       -7.46957493E-18
   124.70700       -7.46959148E-18
   124.88750       -7.46960802E-18
   125.06800       -7.46962208E-18
   125.24850       -7.46963201E-18
   125.42900       -7.46963615E-18
   125.60950       -7.46963366E-18
   125.79000       -7.46962622E-18
   125.97050       -7.46961629E-18
   126.15100       -7.46960471E-18
   126.33150       -7.46959396E-18
   126.51200       -7.46958652E-18
   126.69250       -7.46958321E-18
   126.87300       -7.46958569E-18
   127.05350       -7.46959313E-18
   127.23400       -7.46960306E-18
   127.41450       -7.46961298E-18
   127.59500       -7.46962126E-18
   127.77550       -7.46962622E-18
   127.95600       -7.46962291E-18
   128.13651       -7.46961381E-18
   128.31700       -7.46959892E-18
   128.49750       -7.46957990E-18
   128.67799       -7.46956005E-18
   128.85851       -7.46954350E-18
   129.03900       -7.46953275E-18
   129.21950       -7.46952944E-18
   129.39999       -7.46953440E-18
   129.58051       -7.46954598E-18
   129.76100       -7.46956253E-18
   129.94150       -7.46958238E-18
   130.12199       -7.46959892E-18
   130.30251       -7.46961133E-18
   130.48300       -7.46961795E-18
   130.66350       -7.46961712E-18
   130.84399       -7.46960968E-18
   131.02451       -7.46959892E-18
   131.20500       -7.46958734E-18
   131.38550       -7.46957742E-18
   131.56599       -7.46957080E-18
   131.74651       -7.46956997E-18
   131.92700       -7.46957411E-18
   132.10750       -7.46958155E-18
   132.28799       -7.46959148E-18
   132.46851       -7.46960140E-18
   132.64900       -7.46961050E-18
   132.82950       -7.46961712E-18
   133.00999       -7.46961960E-18
   133.19051       -7.46961795E-18
   133.37100       -7.46961381E-18
   133.55150       -7.46960719E-18
   133.73199       -7.46960058E-18
   133.91251       -7.46959479E-18
   134.09300       -7.46958982E-18
   134.27350       -7.46958817E-18
   134.45399       -7.46958817E-18
   134.63451       -7.46958982E-18
   134.81500       -7.46959313E-18
   134.99550       -7.46959727E-18
   135.17599       -7.46960140E-18
   135.35651       -7.46960389E-18
   135.53700       -7.46960471E-18
   135.71750       -7.46960389E-18
   135.89799       -7.46959975E-18
   136.07851       -7.46959479E-18
   136.25900       -7.46958982E-18
   136.43950       -7.46958486E-18
   136.62000       -7.46958155E-18
   136.80051       -7.46958155E-18
   136.98100       -7.46958403E-18
   137.16150       -7.46959065E-18
   137.34200       -7.46960058E-18
   137.52251       -7.46961216E-18
   137.70300       -7.46962457E-18
   137.88350       -7.46963449E-18
   138.06400       -7.46964111E-18
   138.24451       -7.46964194E-18
   138.42500       -7.46963697E-18
   138.60550       -7.46962622E-18
   138.78600       -7.46961216E-18
   138.96651       -7.46959561E-18
   139.14700       -7.46958072E-18
   139.32750       -7.46956832E-18
   139.50800       -7.46956005E-18